# vtk DataFile Version 3.0
# Velocity/pressure data
ASCII
DATASET STRUCTURED_GRID
DIMENSIONS 21 21 21 POINTS 9261 DOUBLE
0.000000e+00 0.000000e+00 0.000000e+00
0.000000e+00 5.000000e-02 0.000000e+00
0.000000e+00 1.000000e-01 0.000000e+00
0.000000e+00 1.500000e-01 0.000000e+00
0.000000e+00 2.000000e-01 0.000000e+00
0.000000e+00 2.500000e-01 0.000000e+00
0.000000e+00 3.000000e-01 0.000000e+00
0.000000e+00 3.500000e-01 0.000000e+00
0.000000e+00 4.000000e-01 0.000000e+00
0.000000e+00 4.500000e-01 0.000000e+00
0.000000e+00 5.000000e-01 0.000000e+00
0.000000e+00 5.500000e-01 0.000000e+00
0.000000e+00 6.000000e-01 0.000000e+00
0.000000e+00 6.500000e-01 0.000000e+00
0.000000e+00 7.000000e-01 0.000000e+00
0.000000e+00 7.500000e-01 0.000000e+00
0.000000e+00 8.000000e-01 0.000000e+00
0.000000e+00 8.500000e-01 0.000000e+00
0.000000e+00 9.000000e-01 0.000000e+00
0.000000e+00 9.500000e-01 0.000000e+00
0.000000e+00 1.000000e+00 0.000000e+00
5.000000e-02 0.000000e+00 0.000000e+00
5.000000e-02 5.000000e-02 0.000000e+00
5.000000e-02 1.000000e-01 0.000000e+00
5.000000e-02 1.500000e-01 0.000000e+00
5.000000e-02 2.000000e-01 0.000000e+00
5.000000e-02 2.500000e-01 0.000000e+00
5.000000e-02 3.000000e-01 0.000000e+00
5.000000e-02 3.500000e-01 0.000000e+00
5.000000e-02 4.000000e-01 0.000000e+00
5.000000e-02 4.500000e-01 0.000000e+00
5.000000e-02 5.000000e-01 0.000000e+00
5.000000e-02 5.500000e-01 0.000000e+00
5.000000e-02 6.000000e-01 0.000000e+00
5.000000e-02 6.500000e-01 0.000000e+00
5.000000e-02 7.000000e-01 0.000000e+00
5.000000e-02 7.500000e-01 0.000000e+00
5.000000e-02 8.000000e-01 0.000000e+00
5.000000e-02 8.500000e-01 0.000000e+00
5.000000e-02 9.000000e-01 0.000000e+00
5.000000e-02 9.500000e-01 0.000000e+00
5.000000e-02 1.000000e+00 0.000000e+00
1.000000e-01 0.000000e+00 0.000000e+00
1.000000e-01 5.000000e-02 0.000000e+00
1.000000e-01 1.000000e-01 0.000000e+00
1.000000e-01 1.500000e-01 0.000000e+00
1.000000e-01 2.000000e-01 0.000000e+00
1.000000e-01 2.500000e-01 0.000000e+00
1.000000e-01 3.000000e-01 0.000000e+00
1.000000e-01 3.500000e-01 0.000000e+00
1.000000e-01 4.000000e-01 0.000000e+00
1.000000e-01 4.500000e-01 0.000000e+00
1.000000e-01 5.000000e-01 0.000000e+00
1.000000e-01 5.500000e-01 0.000000e+00
1.000000e-01 6.000000e-01 0.000000e+00
1.000000e-01 6.500000e-01 0.000000e+00
1.000000e-01 7.000000e-01 0.000000e+00
1.000000e-01 7.500000e-01 0.000000e+00
1.000000e-01 8.000000e-01 0.000000e+00
1.000000e-01 8.500000e-01 0.000000e+00
1.000000e-01 9.000000e-01 0.000000e+00
1.000000e-01 9.500000e-01 0.000000e+00
1.000000e-01 1.000000e+00 0.000000e+00
1.500000e-01 0.000000e+00 0.000000e+00
1.500000e-01 5.000000e-02 0.000000e+00
1.500000e-01 1.000000e-01 0.000000e+00
1.500000e-01 1.500000e-01 0.000000e+00
1.500000e-01 2.000000e-01 0.000000e+00
1.500000e-01 2.500000e-01 0.000000e+00
1.500000e-01 3.000000e-01 0.000000e+00
1.500000e-01 3.500000e-01 0.000000e+00
1.500000e-01 4.000000e-01 0.000000e+00
1.500000e-01 4.500000e-01 0.000000e+00
1.500000e-01 5.000000e-01 0.000000e+00
1.500000e-01 5.500000e-01 0.000000e+00
1.500000e-01 6.000000e-01 0.000000e+00
1.500000e-01 6.500000e-01 0.000000e+00
1.500000e-01 7.000000e-01 0.000000e+00
1.500000e-01 7.500000e-01 0.000000e+00
1.500000e-01 8.000000e-01 0.000000e+00
1.500000e-01 8.500000e-01 0.000000e+00
1.500000e-01 9.000000e-01 0.000000e+00
1.500000e-01 9.500000e-01 0.000000e+00
1.500000e-01 1.000000e+00 0.000000e+00
2.000000e-01 0.000000e+00 0.000000e+00
2.000000e-01 5.000000e-02 0.000000e+00
2.000000e-01 1.000000e-01 0.000000e+00
2.000000e-01 1.500000e-01 0.000000e+00
2.000000e-01 2.000000e-01 0.000000e+00
2.000000e-01 2.500000e-01 0.000000e+00
2.000000e-01 3.000000e-01 0.000000e+00
2.000000e-01 3.500000e-01 0.000000e+00
2.000000e-01 4.000000e-01 0.000000e+00
2.000000e-01 4.500000e-01 0.000000e+00
2.000000e-01 5.000000e-01 0.000000e+00
2.000000e-01 5.500000e-01 0.000000e+00
2.000000e-01 6.000000e-01 0.000000e+00
2.000000e-01 6.500000e-01 0.000000e+00
2.000000e-01 7.000000e-01 0.000000e+00
2.000000e-01 7.500000e-01 0.000000e+00
2.000000e-01 8.000000e-01 0.000000e+00
2.000000e-01 8.500000e-01 0.000000e+00
2.000000e-01 9.000000e-01 0.000000e+00
2.000000e-01 9.500000e-01 0.000000e+00
2.000000e-01 1.000000e+00 0.000000e+00
2.500000e-01 0.000000e+00 0.000000e+00
2.500000e-01 5.000000e-02 0.000000e+00
2.500000e-01 1.000000e-01 0.000000e+00
2.500000e-01 1.500000e-01 0.000000e+00
2.500000e-01 2.000000e-01 0.000000e+00
2.500000e-01 2.500000e-01 0.000000e+00
2.500000e-01 3.000000e-01 0.000000e+00
2.500000e-01 3.500000e-01 0.000000e+00
2.500000e-01 4.000000e-01 0.000000e+00
2.500000e-01 4.500000e-01 0.000000e+00
2.500000e-01 5.000000e-01 0.000000e+00
2.500000e-01 5.500000e-01 0.000000e+00
2.500000e-01 6.000000e-01 0.000000e+00
2.500000e-01 6.500000e-01 0.000000e+00
2.500000e-01 7.000000e-01 0.000000e+00
2.500000e-01 7.500000e-01 0.000000e+00
2.500000e-01 8.000000e-01 0.000000e+00
2.500000e-01 8.500000e-01 0.000000e+00
2.500000e-01 9.000000e-01 0.000000e+00
2.500000e-01 9.500000e-01 0.000000e+00
2.500000e-01 1.000000e+00 0.000000e+00
3.000000e-01 0.000000e+00 0.000000e+00
3.000000e-01 5.000000e-02 0.000000e+00
3.000000e-01 1.000000e-01 0.000000e+00
3.000000e-01 1.500000e-01 0.000000e+00
3.000000e-01 2.000000e-01 0.000000e+00
3.000000e-01 2.500000e-01 0.000000e+00
3.000000e-01 3.000000e-01 0.000000e+00
3.000000e-01 3.500000e-01 0.000000e+00
3.000000e-01 4.000000e-01 0.000000e+00
3.000000e-01 4.500000e-01 0.000000e+00
3.000000e-01 5.000000e-01 0.000000e+00
3.000000e-01 5.500000e-01 0.000000e+00
3.000000e-01 6.000000e-01 0.000000e+00
3.000000e-01 6.500000e-01 0.000000e+00
3.000000e-01 7.000000e-01 0.000000e+00
3.000000e-01 7.500000e-01 0.000000e+00
3.000000e-01 8.000000e-01 0.000000e+00
3.000000e-01 8.500000e-01 0.000000e+00
3.000000e-01 9.000000e-01 0.000000e+00
3.000000e-01 9.500000e-01 0.000000e+00
3.000000e-01 1.000000e+00 0.000000e+00
3.500000e-01 0.000000e+00 0.000000e+00
3.500000e-01 5.000000e-02 0.000000e+00
3.500000e-01 1.000000e-01 0.000000e+00
3.500000e-01 1.500000e-01 0.000000e+00
3.500000e-01 2.000000e-01 0.000000e+00
3.500000e-01 2.500000e-01 0.000000e+00
3.500000e-01 3.000000e-01 0.000000e+00
3.500000e-01 3.500000e-01 0.000000e+00
3.500000e-01 4.000000e-01 0.000000e+00
3.500000e-01 4.500000e-01 0.000000e+00
3.500000e-01 5.000000e-01 0.000000e+00
3.500000e-01 5.500000e-01 0.000000e+00
3.500000e-01 6.000000e-01 0.000000e+00
3.500000e-01 6.500000e-01 0.000000e+00
3.500000e-01 7.000000e-01 0.000000e+00
3.500000e-01 7.500000e-01 0.000000e+00
3.500000e-01 8.000000e-01 0.000000e+00
3.500000e-01 8.500000e-01 0.000000e+00
3.500000e-01 9.000000e-01 0.000000e+00
3.500000e-01 9.500000e-01 0.000000e+00
3.500000e-01 1.000000e+00 0.000000e+00
4.000000e-01 0.000000e+00 0.000000e+00
4.000000e-01 5.000000e-02 0.000000e+00
4.000000e-01 1.000000e-01 0.000000e+00
4.000000e-01 1.500000e-01 0.000000e+00
4.000000e-01 2.000000e-01 0.000000e+00
4.000000e-01 2.500000e-01 0.000000e+00
4.000000e-01 3.000000e-01 0.000000e+00
4.000000e-01 3.500000e-01 0.000000e+00
4.000000e-01 4.000000e-01 0.000000e+00
4.000000e-01 4.500000e-01 0.000000e+00
4.000000e-01 5.000000e-01 0.000000e+00
4.000000e-01 5.500000e-01 0.000000e+00
4.000000e-01 6.000000e-01 0.000000e+00
4.000000e-01 6.500000e-01 0.000000e+00
4.000000e-01 7.000000e-01 0.000000e+00
4.000000e-01 7.500000e-01 0.000000e+00
4.000000e-01 8.000000e-01 0.000000e+00
4.000000e-01 8.500000e-01 0.000000e+00
4.000000e-01 9.000000e-01 0.000000e+00
4.000000e-01 9.500000e-01 0.000000e+00
4.000000e-01 1.000000e+00 0.000000e+00
4.500000e-01 0.000000e+00 0.000000e+00
4.500000e-01 5.000000e-02 0.000000e+00
4.500000e-01 1.000000e-01 0.000000e+00
4.500000e-01 1.500000e-01 0.000000e+00
4.500000e-01 2.000000e-01 0.000000e+00
4.500000e-01 2.500000e-01 0.000000e+00
4.500000e-01 3.000000e-01 0.000000e+00
4.500000e-01 3.500000e-01 0.000000e+00
4.500000e-01 4.000000e-01 0.000000e+00
4.500000e-01 4.500000e-01 0.000000e+00
4.500000e-01 5.000000e-01 0.000000e+00
4.500000e-01 5.500000e-01 0.000000e+00
4.500000e-01 6.000000e-01 0.000000e+00
4.500000e-01 6.500000e-01 0.000000e+00
4.500000e-01 7.000000e-01 0.000000e+00
4.500000e-01 7.500000e-01 0.000000e+00
4.500000e-01 8.000000e-01 0.000000e+00
4.500000e-01 8.500000e-01 0.000000e+00
4.500000e-01 9.000000e-01 0.000000e+00
4.500000e-01 9.500000e-01 0.000000e+00
4.500000e-01 1.000000e+00 0.000000e+00
5.000000e-01 0.000000e+00 0.000000e+00
5.000000e-01 5.000000e-02 0.000000e+00
5.000000e-01 1.000000e-01 0.000000e+00
5.000000e-01 1.500000e-01 0.000000e+00
5.000000e-01 2.000000e-01 0.000000e+00
5.000000e-01 2.500000e-01 0.000000e+00
5.000000e-01 3.000000e-01 0.000000e+00
5.000000e-01 3.500000e-01 0.000000e+00
5.000000e-01 4.000000e-01 0.000000e+00
5.000000e-01 4.500000e-01 0.000000e+00
5.000000e-01 5.000000e-01 0.000000e+00
5.000000e-01 5.500000e-01 0.000000e+00
5.000000e-01 6.000000e-01 0.000000e+00
5.000000e-01 6.500000e-01 0.000000e+00
5.000000e-01 7.000000e-01 0.000000e+00
5.000000e-01 7.500000e-01 0.000000e+00
5.000000e-01 8.000000e-01 0.000000e+00
5.000000e-01 8.500000e-01 0.000000e+00
5.000000e-01 9.000000e-01 0.000000e+00
5.000000e-01 9.500000e-01 0.000000e+00
5.000000e-01 1.000000e+00 0.000000e+00
5.500000e-01 0.000000e+00 0.000000e+00
5.500000e-01 5.000000e-02 0.000000e+00
5.500000e-01 1.000000e-01 0.000000e+00
5.500000e-01 1.500000e-01 0.000000e+00
5.500000e-01 2.000000e-01 0.000000e+00
5.500000e-01 2.500000e-01 0.000000e+00
5.500000e-01 3.000000e-01 0.000000e+00
5.500000e-01 3.500000e-01 0.000000e+00
5.500000e-01 4.000000e-01 0.000000e+00
5.500000e-01 4.500000e-01 0.000000e+00
5.500000e-01 5.000000e-01 0.000000e+00
5.500000e-01 5.500000e-01 0.000000e+00
5.500000e-01 6.000000e-01 0.000000e+00
5.500000e-01 6.500000e-01 0.000000e+00
5.500000e-01 7.000000e-01 0.000000e+00
5.500000e-01 7.500000e-01 0.000000e+00
5.500000e-01 8.000000e-01 0.000000e+00
5.500000e-01 8.500000e-01 0.000000e+00
5.500000e-01 9.000000e-01 0.000000e+00
5.500000e-01 9.500000e-01 0.000000e+00
5.500000e-01 1.000000e+00 0.000000e+00
6.000000e-01 0.000000e+00 0.000000e+00
[...]
POINT_DATA 9261
VECTORS velocity_vectors DOUBLE
0.000000e+00 0.000000e+00 0.000000e+00
0.000000e+00 0.000000e+00 0.000000e+00
0.000000e+00 0.000000e+00 0.000000e+00
0.000000e+00 0.000000e+00 0.000000e+00
0.000000e+00 0.000000e+00 0.000000e+00
0.000000e+00 0.000000e+00 0.000000e+00
0.000000e+00 0.000000e+00 0.000000e+00
0.000000e+00 0.000000e+00 0.000000e+00
0.000000e+00 0.000000e+00 0.000000e+00
0.000000e+00 0.000000e+00 0.000000e+00
0.000000e+00 0.000000e+00 0.000000e+00
0.000000e+00 0.000000e+00 0.000000e+00
0.000000e+00 0.000000e+00 0.000000e+00
0.000000e+00 0.000000e+00 0.000000e+00
0.000000e+00 0.000000e+00 0.000000e+00
0.000000e+00 0.000000e+00 0.000000e+00
0.000000e+00 0.000000e+00 0.000000e+00
0.000000e+00 0.000000e+00 0.000000e+00
0.000000e+00 0.000000e+00 0.000000e+00
0.000000e+00 0.000000e+00 0.000000e+00
0.000000e+00 0.000000e+00 0.000000e+00
0.000000e+00 0.000000e+00 0.000000e+00
0.000000e+00 0.000000e+00 0.000000e+00
0.000000e+00 0.000000e+00 0.000000e+00
0.000000e+00 0.000000e+00 0.000000e+00
0.000000e+00 0.000000e+00 0.000000e+00
0.000000e+00 0.000000e+00 0.000000e+00
0.000000e+00 0.000000e+00 0.000000e+00
0.000000e+00 0.000000e+00 0.000000e+00
0.000000e+00 0.000000e+00 0.000000e+00
0.000000e+00 0.000000e+00 0.000000e+00
0.000000e+00 0.000000e+00 0.000000e+00
0.000000e+00 0.000000e+00 0.000000e+00
0.000000e+00 0.000000e+00 0.000000e+00
0.000000e+00 0.000000e+00 0.000000e+00
0.000000e+00 0.000000e+00 0.000000e+00
0.000000e+00 0.000000e+00 0.000000e+00
0.000000e+00 0.000000e+00 0.000000e+00
0.000000e+00 0.000000e+00 0.000000e+00
0.000000e+00 0.000000e+00 0.000000e+00
0.000000e+00 0.000000e+00 0.000000e+00
0.000000e+00 0.000000e+00 0.000000e+00
0.000000e+00 0.000000e+00 0.000000e+00
0.000000e+00 0.000000e+00 0.000000e+00
0.000000e+00 0.000000e+00 0.000000e+00
0.000000e+00 0.000000e+00 0.000000e+00
0.000000e+00 0.000000e+00 0.000000e+00
0.000000e+00 0.000000e+00 0.000000e+00
0.000000e+00 0.000000e+00 0.000000e+00
0.000000e+00 0.000000e+00 0.000000e+00
0.000000e+00 0.000000e+00 0.000000e+00
0.000000e+00 0.000000e+00 0.000000e+00
0.000000e+00 0.000000e+00 0.000000e+00
0.000000e+00 0.000000e+00 0.000000e+00
0.000000e+00 0.000000e+00 0.000000e+00
0.000000e+00 0.000000e+00 0.000000e+00
0.000000e+00 0.000000e+00 0.000000e+00
0.000000e+00 0.000000e+00 0.000000e+00
0.000000e+00 0.000000e+00 0.000000e+00
0.000000e+00 0.000000e+00 0.000000e+00
0.000000e+00 0.000000e+00 0.000000e+00
0.000000e+00 0.000000e+00 0.000000e+00
0.000000e+00 0.000000e+00 0.000000e+00
0.000000e+00 0.000000e+00 0.000000e+00
0.000000e+00 0.000000e+00 0.000000e+00
0.000000e+00 0.000000e+00 0.000000e+00
0.000000e+00 0.000000e+00 0.000000e+00
0.000000e+00 0.000000e+00 0.000000e+00
0.000000e+00 0.000000e+00 0.000000e+00
0.000000e+00 0.000000e+00 0.000000e+00
0.000000e+00 0.000000e+00 0.000000e+00
0.000000e+00 0.000000e+00 0.000000e+00
0.000000e+00 0.000000e+00 0.000000e+00
0.000000e+00 0.000000e+00 0.000000e+00
0.000000e+00 0.000000e+00 0.000000e+00
0.000000e+00 0.000000e+00 0.000000e+00
0.000000e+00 0.000000e+00 0.000000e+00
0.000000e+00 0.000000e+00 0.000000e+00
0.000000e+00 0.000000e+00 0.000000e+00
0.000000e+00 0.000000e+00 0.000000e+00
0.000000e+00 0.000000e+00 0.000000e+00
0.000000e+00 0.000000e+00 0.000000e+00
0.000000e+00 0.000000e+00 0.000000e+00
0.000000e+00 0.000000e+00 0.000000e+00
0.000000e+00 0.000000e+00 0.000000e+00
0.000000e+00 0.000000e+00 0.000000e+00
0.000000e+00 0.000000e+00 0.000000e+00
0.000000e+00 0.000000e+00 0.000000e+00
0.000000e+00 0.000000e+00 0.000000e+00
0.000000e+00 0.000000e+00 0.000000e+00
0.000000e+00 0.000000e+00 0.000000e+00
0.000000e+00 0.000000e+00 0.000000e+00
0.000000e+00 0.000000e+00 0.000000e+00
0.000000e+00 0.000000e+00 0.000000e+00
0.000000e+00 0.000000e+00 0.000000e+00
0.000000e+00 0.000000e+00 0.000000e+00
0.000000e+00 0.000000e+00 0.000000e+00
0.000000e+00 0.000000e+00 0.000000e+00
0.000000e+00 0.000000e+00 0.000000e+00
0.000000e+00 0.000000e+00 0.000000e+00
0.000000e+00 0.000000e+00 0.000000e+00
0.000000e+00 0.000000e+00 0.000000e+00
0.000000e+00 0.000000e+00 0.000000e+00
0.000000e+00 0.000000e+00 0.000000e+00
0.000000e+00 0.000000e+00 0.000000e+00
0.000000e+00 0.000000e+00 0.000000e+00
0.000000e+00 0.000000e+00 0.000000e+00
0.000000e+00 0.000000e+00 0.000000e+00
0.000000e+00 0.000000e+00 0.000000e+00
0.000000e+00 0.000000e+00 0.000000e+00
0.000000e+00 0.000000e+00 0.000000e+00
0.000000e+00 0.000000e+00 0.000000e+00
0.000000e+00 0.000000e+00 0.000000e+00
0.000000e+00 0.000000e+00 0.000000e+00
0.000000e+00 0.000000e+00 0.000000e+00
0.000000e+00 0.000000e+00 0.000000e+00
0.000000e+00 0.000000e+00 0.000000e+00
0.000000e+00 0.000000e+00 0.000000e+00
0.000000e+00 0.000000e+00 0.000000e+00
0.000000e+00 0.000000e+00 0.000000e+00
0.000000e+00 0.000000e+00 0.000000e+00
0.000000e+00 0.000000e+00 0.000000e+00
0.000000e+00 0.000000e+00 0.000000e+00
0.000000e+00 0.000000e+00 0.000000e+00
0.000000e+00 0.000000e+00 0.000000e+00
0.000000e+00 0.000000e+00 0.000000e+00
0.000000e+00 0.000000e+00 0.000000e+00
0.000000e+00 0.000000e+00 0.000000e+00
0.000000e+00 0.000000e+00 0.000000e+00
0.000000e+00 0.000000e+00 0.000000e+00
0.000000e+00 0.000000e+00 0.000000e+00
0.000000e+00 0.000000e+00 0.000000e+00
0.000000e+00 0.000000e+00 0.000000e+00
0.000000e+00 0.000000e+00 0.000000e+00
0.000000e+00 0.000000e+00 0.000000e+00
0.000000e+00 0.000000e+00 0.000000e+00
0.000000e+00 0.000000e+00 0.000000e+00
0.000000e+00 0.000000e+00 0.000000e+00
0.000000e+00 0.000000e+00 0.000000e+00
0.000000e+00 0.000000e+00 0.000000e+00
0.000000e+00 0.000000e+00 0.000000e+00
0.000000e+00 0.000000e+00 0.000000e+00
0.000000e+00 0.000000e+00 0.000000e+00
0.000000e+00 0.000000e+00 0.000000e+00
0.000000e+00 0.000000e+00 0.000000e+00
0.000000e+00 0.000000e+00 0.000000e+00
0.000000e+00 0.000000e+00 0.000000e+00
0.000000e+00 0.000000e+00 0.000000e+00
0.000000e+00 0.000000e+00 0.000000e+00
0.000000e+00 0.000000e+00 0.000000e+00
0.000000e+00 0.000000e+00 0.000000e+00
0.000000e+00 0.000000e+00 0.000000e+00
0.000000e+00 0.000000e+00 0.000000e+00
0.000000e+00 0.000000e+00 0.000000e+00
0.000000e+00 0.000000e+00 0.000000e+00
0.000000e+00 0.000000e+00 0.000000e+00
0.000000e+00 0.000000e+00 0.000000e+00
0.000000e+00 0.000000e+00 0.000000e+00
0.000000e+00 0.000000e+00 0.000000e+00
0.000000e+00 0.000000e+00 0.000000e+00
0.000000e+00 0.000000e+00 0.000000e+00
0.000000e+00 0.000000e+00 0.000000e+00
0.000000e+00 0.000000e+00 0.000000e+00
0.000000e+00 0.000000e+00 0.000000e+00
0.000000e+00 0.000000e+00 0.000000e+00
0.000000e+00 0.000000e+00 0.000000e+00
0.000000e+00 0.000000e+00 0.000000e+00
0.000000e+00 0.000000e+00 0.000000e+00
0.000000e+00 0.000000e+00 0.000000e+00
0.000000e+00 0.000000e+00 0.000000e+00
0.000000e+00 0.000000e+00 0.000000e+00
0.000000e+00 0.000000e+00 0.000000e+00
0.000000e+00 0.000000e+00 0.000000e+00
0.000000e+00 0.000000e+00 0.000000e+00
0.000000e+00 0.000000e+00 0.000000e+00
0.000000e+00 0.000000e+00 0.000000e+00
0.000000e+00 0.000000e+00 0.000000e+00
0.000000e+00 0.000000e+00 0.000000e+00
0.000000e+00 0.000000e+00 0.000000e+00
0.000000e+00 0.000000e+00 0.000000e+00
0.000000e+00 0.000000e+00 0.000000e+00
0.000000e+00 0.000000e+00 0.000000e+00
0.000000e+00 0.000000e+00 0.000000e+00
0.000000e+00 0.000000e+00 0.000000e+00
0.000000e+00 0.000000e+00 0.000000e+00
0.000000e+00 0.000000e+00 0.000000e+00
0.000000e+00 0.000000e+00 0.000000e+00
0.000000e+00 0.000000e+00 0.000000e+00
0.000000e+00 0.000000e+00 0.000000e+00
0.000000e+00 0.000000e+00 0.000000e+00
0.000000e+00 0.000000e+00 0.000000e+00
0.000000e+00 0.000000e+00 0.000000e+00
0.000000e+00 0.000000e+00 0.000000e+00
0.000000e+00 0.000000e+00 0.000000e+00
0.000000e+00 0.000000e+00 0.000000e+00
0.000000e+00 0.000000e+00 0.000000e+00
0.000000e+00 0.000000e+00 0.000000e+00
0.000000e+00 0.000000e+00 0.000000e+00
0.000000e+00 0.000000e+00 0.000000e+00
0.000000e+00 0.000000e+00 0.000000e+00
0.000000e+00 0.000000e+00 0.000000e+00
0.000000e+00 0.000000e+00 0.000000e+00
0.000000e+00 0.000000e+00 0.000000e+00
0.000000e+00 0.000000e+00 0.000000e+00
0.000000e+00 0.000000e+00 0.000000e+00
0.000000e+00 0.000000e+00 0.000000e+00
0.000000e+00 0.000000e+00 0.000000e+00
0.000000e+00 0.000000e+00 0.000000e+00
0.000000e+00 0.000000e+00 0.000000e+00
0.000000e+00 0.000000e+00 0.000000e+00
0.000000e+00 0.000000e+00 0.000000e+00
0.000000e+00 0.000000e+00 0.000000e+00
0.000000e+00 0.000000e+00 0.000000e+00
0.000000e+00 0.000000e+00 0.000000e+00
0.000000e+00 0.000000e+00 0.000000e+00
0.000000e+00 0.000000e+00 0.000000e+00
0.000000e+00 0.000000e+00 0.000000e+00
0.000000e+00 0.000000e+00 0.000000e+00
0.000000e+00 0.000000e+00 0.000000e+00
0.000000e+00 0.000000e+00 0.000000e+00
0.000000e+00 0.000000e+00 0.000000e+00
0.000000e+00 0.000000e+00 0.000000e+00
0.000000e+00 0.000000e+00 0.000000e+00
0.000000e+00 0.000000e+00 0.000000e+00
0.000000e+00 0.000000e+00 0.000000e+00
0.000000e+00 0.000000e+00 0.000000e+00
0.000000e+00 0.000000e+00 0.000000e+00
0.000000e+00 0.000000e+00 0.000000e+00
0.000000e+00 0.000000e+00 0.000000e+00
0.000000e+00 0.000000e+00 0.000000e+00
0.000000e+00 0.000000e+00 0.000000e+00
0.000000e+00 0.000000e+00 0.000000e+00
0.000000e+00 0.000000e+00 0.000000e+00
0.000000e+00 0.000000e+00 0.000000e+00
0.000000e+00 0.000000e+00 0.000000e+00
0.000000e+00 0.000000e+00 0.000000e+00
0.000000e+00 0.000000e+00 0.000000e+00
0.000000e+00 0.000000e+00 0.000000e+00
0.000000e+00 0.000000e+00 0.000000e+00
0.000000e+00 0.000000e+00 0.000000e+00
0.000000e+00 0.000000e+00 0.000000e+00
0.000000e+00 0.000000e+00 0.000000e+00
0.000000e+00 0.000000e+00 0.000000e+00
0.000000e+00 0.000000e+00 0.000000e+00
0.000000e+00 0.000000e+00 0.000000e+00
0.000000e+00 0.000000e+00 0.000000e+00
0.000000e+00 0.000000e+00 0.000000e+00
0.000000e+00 0.000000e+00 0.000000e+00
0.000000e+00 0.000000e+00 0.000000e+00
0.000000e+00 0.000000e+00 0.000000e+00
0.000000e+00 0.000000e+00 0.000000e+00
0.000000e+00 0.000000e+00 0.000000e+00
0.000000e+00 0.000000e+00 0.000000e+00
0.000000e+00 0.000000e+00 0.000000e+00
0.000000e+00 0.000000e+00 0.000000e+00
0.000000e+00 0.000000e+00 0.000000e+00
0.000000e+00 0.000000e+00 0.000000e+00
0.000000e+00 0.000000e+00 0.000000e+00
0.000000e+00 0.000000e+00 0.000000e+00
0.000000e+00 0.000000e+00 0.000000e+00
0.000000e+00 0.000000e+00 0.000000e+00
0.000000e+00 0.000000e+00 0.000000e+00
0.000000e+00 0.000000e+00 0.000000e+00
0.000000e+00 0.000000e+00 0.000000e+00
0.000000e+00 0.000000e+00 0.000000e+00
0.000000e+00 0.000000e+00 0.000000e+00
0.000000e+00 0.000000e+00 0.000000e+00
0.000000e+00 0.000000e+00 0.000000e+00
0.000000e+00 0.000000e+00 0.000000e+00
0.000000e+00 0.000000e+00 0.000000e+00
0.000000e+00 0.000000e+00 0.000000e+00
0.000000e+00 0.000000e+00 0.000000e+00
0.000000e+00 0.000000e+00 0.000000e+00
0.000000e+00 0.000000e+00 0.000000e+00
0.000000e+00 0.000000e+00 0.000000e+00
0.000000e+00 0.000000e+00 0.000000e+00
0.000000e+00 0.000000e+00 0.000000e+00
0.000000e+00 0.000000e+00 0.000000e+00
0.000000e+00 0.000000e+00 0.000000e+00
0.000000e+00 0.000000e+00 0.000000e+00
0.000000e+00 0.000000e+00 0.000000e+00
0.000000e+00 0.000000e+00 0.000000e+00
0.000000e+00 0.000000e+00 0.000000e+00
0.000000e+00 0.000000e+00 0.000000e+00
0.000000e+00 0.000000e+00 0.000000e+00
0.000000e+00 0.000000e+00 0.000000e+00
0.000000e+00 0.000000e+00 0.000000e+00
0.000000e+00 0.000000e+00 0.000000e+00
0.000000e+00 0.000000e+00 0.000000e+00
0.000000e+00 0.000000e+00 0.000000e+00
0.000000e+00 0.000000e+00 0.000000e+00
0.000000e+00 0.000000e+00 0.000000e+00
0.000000e+00 0.000000e+00 0.000000e+00
0.000000e+00 0.000000e+00 0.000000e+00
0.000000e+00 0.000000e+00 0.000000e+00
0.000000e+00 0.000000e+00 0.000000e+00
0.000000e+00 0.000000e+00 0.000000e+00
0.000000e+00 0.000000e+00 0.000000e+00
0.000000e+00 0.000000e+00 0.000000e+00
0.000000e+00 0.000000e+00 0.000000e+00
0.000000e+00 0.000000e+00 0.000000e+00
0.000000e+00 0.000000e+00 0.000000e+00
0.000000e+00 0.000000e+00 0.000000e+00
0.000000e+00 0.000000e+00 0.000000e+00
0.000000e+00 0.000000e+00 0.000000e+00
0.000000e+00 0.000000e+00 0.000000e+00
0.000000e+00 0.000000e+00 0.000000e+00
0.000000e+00 0.000000e+00 0.000000e+00
0.000000e+00 0.000000e+00 0.000000e+00
0.000000e+00 0.000000e+00 0.000000e+00
0.000000e+00 0.000000e+00 0.000000e+00
0.000000e+00 0.000000e+00 0.000000e+00
0.000000e+00 0.000000e+00 0.000000e+00
0.000000e+00 0.000000e+00 0.000000e+00
0.000000e+00 0.000000e+00 0.000000e+00
0.000000e+00 0.000000e+00 0.000000e+00
0.000000e+00 0.000000e+00 0.000000e+00
0.000000e+00 0.000000e+00 0.000000e+00
0.000000e+00 0.000000e+00 0.000000e+00
0.000000e+00 0.000000e+00 0.000000e+00
0.000000e+00 0.000000e+00 0.000000e+00
0.000000e+00 0.000000e+00 0.000000e+00
0.000000e+00 0.000000e+00 0.000000e+00
0.000000e+00 0.000000e+00 0.000000e+00
0.000000e+00 0.000000e+00 0.000000e+00
0.000000e+00 0.000000e+00 0.000000e+00
0.000000e+00 0.000000e+00 0.000000e+00
0.000000e+00 0.000000e+00 0.000000e+00
0.000000e+00 0.000000e+00 0.000000e+00
0.000000e+00 0.000000e+00 0.000000e+00
0.000000e+00 0.000000e+00 0.000000e+00
0.000000e+00 0.000000e+00 0.000000e+00
0.000000e+00 0.000000e+00 0.000000e+00
0.000000e+00 0.000000e+00 0.000000e+00
0.000000e+00 0.000000e+00 0.000000e+00
0.000000e+00 0.000000e+00 0.000000e+00
0.000000e+00 0.000000e+00 0.000000e+00
0.000000e+00 0.000000e+00 0.000000e+00
0.000000e+00 0.000000e+00 0.000000e+00
0.000000e+00 0.000000e+00 0.000000e+00
0.000000e+00 0.000000e+00 0.000000e+00
0.000000e+00 0.000000e+00 0.000000e+00
0.000000e+00 0.000000e+00 0.000000e+00
0.000000e+00 0.000000e+00 0.000000e+00
0.000000e+00 0.000000e+00 0.000000e+00
0.000000e+00 0.000000e+00 0.000000e+00
0.000000e+00 0.000000e+00 0.000000e+00
0.000000e+00 0.000000e+00 0.000000e+00
0.000000e+00 0.000000e+00 0.000000e+00
0.000000e+00 0.000000e+00 0.000000e+00
0.000000e+00 0.000000e+00 0.000000e+00
0.000000e+00 0.000000e+00 0.000000e+00
0.000000e+00 0.000000e+00 0.000000e+00
0.000000e+00 0.000000e+00 0.000000e+00
0.000000e+00 0.000000e+00 0.000000e+00
0.000000e+00 0.000000e+00 0.000000e+00
0.000000e+00 0.000000e+00 0.000000e+00
0.000000e+00 0.000000e+00 0.000000e+00
0.000000e+00 0.000000e+00 0.000000e+00
0.000000e+00 0.000000e+00 0.000000e+00
0.000000e+00 0.000000e+00 0.000000e+00
0.000000e+00 0.000000e+00 0.000000e+00
0.000000e+00 0.000000e+00 0.000000e+00
0.000000e+00 0.000000e+00 0.000000e+00
0.000000e+00 0.000000e+00 0.000000e+00
0.000000e+00 0.000000e+00 0.000000e+00
0.000000e+00 0.000000e+00 0.000000e+00
0.000000e+00 0.000000e+00 0.000000e+00
0.000000e+00 0.000000e+00 0.000000e+00
0.000000e+00 0.000000e+00 0.000000e+00
0.000000e+00 0.000000e+00 0.000000e+00
0.000000e+00 0.000000e+00 0.000000e+00
0.000000e+00 0.000000e+00 0.000000e+00
0.000000e+00 0.000000e+00 0.000000e+00
0.000000e+00 0.000000e+00 0.000000e+00
0.000000e+00 0.000000e+00 0.000000e+00
0.000000e+00 0.000000e+00 0.000000e+00
0.000000e+00 0.000000e+00 0.000000e+00
0.000000e+00 0.000000e+00 0.000000e+00
0.000000e+00 0.000000e+00 0.000000e+00
0.000000e+00 0.000000e+00 0.000000e+00
0.000000e+00 0.000000e+00 0.000000e+00
0.000000e+00 0.000000e+00 0.000000e+00
0.000000e+00 0.000000e+00 0.000000e+00
0.000000e+00 0.000000e+00 0.000000e+00
0.000000e+00 0.000000e+00 0.000000e+00
0.000000e+00 0.000000e+00 0.000000e+00
0.000000e+00 0.000000e+00 0.000000e+00
0.000000e+00 0.000000e+00 0.000000e+00
0.000000e+00 0.000000e+00 0.000000e+00
0.000000e+00 0.000000e+00 0.000000e+00
0.000000e+00 0.000000e+00 0.000000e+00
0.000000e+00 0.000000e+00 0.000000e+00
0.000000e+00 0.000000e+00 0.000000e+00
0.000000e+00 0.000000e+00 0.000000e+00
0.000000e+00 0.000000e+00 0.000000e+00
0.000000e+00 0.000000e+00 0.000000e+00
0.000000e+00 0.000000e+00 0.000000e+00
0.000000e+00 0.000000e+00 0.000000e+00
0.000000e+00 0.000000e+00 0.000000e+00
0.000000e+00 0.000000e+00 0.000000e+00
0.000000e+00 0.000000e+00 0.000000e+00
0.000000e+00 0.000000e+00 0.000000e+00
0.000000e+00 0.000000e+00 0.000000e+00
0.000000e+00 0.000000e+00 0.000000e+00
0.000000e+00 0.000000e+00 0.000000e+00
0.000000e+00 0.000000e+00 0.000000e+00
0.000000e+00 0.000000e+00 0.000000e+00
0.000000e+00 0.000000e+00 0.000000e+00
0.000000e+00 0.000000e+00 0.000000e+00
0.000000e+00 0.000000e+00 0.000000e+00
0.000000e+00 0.000000e+00 0.000000e+00
0.000000e+00 0.000000e+00 0.000000e+00
0.000000e+00 0.000000e+00 0.000000e+00
0.000000e+00 0.000000e+00 0.000000e+00
0.000000e+00 0.000000e+00 0.000000e+00
0.000000e+00 0.000000e+00 0.000000e+00
0.000000e+00 0.000000e+00 0.000000e+00
0.000000e+00 0.000000e+00 0.000000e+00
0.000000e+00 0.000000e+00 0.000000e+00
0.000000e+00 0.000000e+00 0.000000e+00
0.000000e+00 0.000000e+00 0.000000e+00
0.000000e+00 0.000000e+00 0.000000e+00
0.000000e+00 0.000000e+00 0.000000e+00
0.000000e+00 0.000000e+00 0.000000e+00
0.000000e+00 0.000000e+00 0.000000e+00
0.000000e+00 0.000000e+00 0.000000e+00
0.000000e+00 0.000000e+00 0.000000e+00
0.000000e+00 0.000000e+00 0.000000e+00
0.000000e+00 0.000000e+00 0.000000e+00
0.000000e+00 0.000000e+00 0.000000e+00
0.000000e+00 0.000000e+00 0.000000e+00
0.000000e+00 0.000000e+00 0.000000e+00
0.000000e+00 0.000000e+00 0.000000e+00
0.000000e+00 0.000000e+00 0.000000e+00
0.000000e+00 0.000000e+00 0.000000e+00
0.000000e+00 0.000000e+00 0.000000e+00
0.000000e+00 0.000000e+00 0.000000e+00
0.000000e+00 0.000000e+00 0.000000e+00
0.000000e+00 0.000000e+00 0.000000e+00
0.000000e+00 0.000000e+00 0.000000e+00
0.000000e+00 0.000000e+00 0.000000e+00
0.000000e+00 0.000000e+00 0.000000e+00
0.000000e+00 0.000000e+00 0.000000e+00
0.000000e+00 0.000000e+00 0.000000e+00
0.000000e+00 0.000000e+00 0.000000e+00
0.000000e+00 0.000000e+00 0.000000e+00
0.000000e+00 0.000000e+00 0.000000e+00
0.000000e+00 0.000000e+00 0.000000e+00
0.000000e+00 0.000000e+00 0.000000e+00
0.000000e+00 0.000000e+00 0.000000e+00
0.000000e+00 0.000000e+00 0.000000e+00
0.000000e+00 0.000000e+00 0.000000e+00
0.000000e+00 0.000000e+00 0.000000e+00
0.000000e+00 0.000000e+00 0.000000e+00
0.000000e+00 0.000000e+00 0.000000e+00
0.000000e+00 0.000000e+00 0.000000e+00
0.000000e+00 0.000000e+00 0.000000e+00
0.000000e+00 0.000000e+00 0.000000e+00
0.000000e+00 0.000000e+00 0.000000e+00
0.000000e+00 0.000000e+00 0.000000e+00
0.000000e+00 0.000000e+00 0.000000e+00
0.000000e+00 0.000000e+00 0.000000e+00
9.761483e-03 2.680790e-03 -1.285468e-02
1.552851e-02 2.627802e-03 -1.505887e-02
1.706641e-02 -7.986967e-04 -1.334853e-02
1.671139e-02 -9.710438e-03 -1.062081e-02
1.512837e-02 -1.912076e-02 -1.107676e-02
1.355742e-02 -2.728674e-02 -7.575165e-03
1.141074e-02 -3.379861e-02 -9.628262e-03
9.893316e-03 -3.779086e-02 -6.093141e-03
8.027445e-03 -3.997955e-02 -8.727852e-03
6.912421e-03 -3.990432e-02 -5.246527e-03
5.484605e-03 -3.844535e-02 -7.987214e-03
4.756568e-03 -3.539337e-02 -4.699561e-03
3.735483e-03 -3.145301e-02 -7.375858e-03
3.338883e-03 -2.654644e-02 -4.326517e-03
2.665586e-03 -2.122232e-02 -6.796226e-03
2.556893e-03 -1.554701e-02 -3.895825e-03
2.211513e-03 -1.008832e-02 -6.132882e-03
2.247296e-03 -5.515290e-03 -2.947307e-03
1.787414e-03 -2.120510e-03 -3.829526e-03
0.000000e+00 0.000000e+00 0.000000e+00
0.000000e+00 0.000000e+00 0.000000e+00
3.712269e-02 1.581782e-03 -1.814665e-02
5.079122e-02 -1.572881e-03 -1.772595e-02
5.370159e-02 -8.568574e-03 -1.598806e-02
5.074280e-02 -2.186754e-02 -7.359442e-03
4.542062e-02 -3.535727e-02 -1.135313e-02
3.906897e-02 -4.713840e-02 -2.125953e-03
3.305998e-02 -5.622978e-02 -9.109761e-03
2.728618e-02 -6.180292e-02 -6.291291e-04
2.247356e-02 -6.452859e-02 -8.250007e-03
1.811888e-02 -6.403958e-02 -4.608242e-04
1.471886e-02 -6.136585e-02 -7.795165e-03
1.170909e-02 -5.636666e-02 -7.375877e-04
9.515764e-03 -4.996505e-02 -7.512777e-03
7.614094e-03 -4.212724e-02 -1.112683e-03
6.398599e-03 -3.364989e-02 -7.118978e-03
5.389489e-03 -2.461292e-02 -1.125119e-03
4.923612e-03 -1.600044e-02 -6.288306e-03
4.329707e-03 -8.500028e-03 -1.940506e-04
3.333348e-03 -3.252132e-03 -2.602883e-03
0.000000e+00 0.000000e+00 0.000000e+00
0.000000e+00 0.000000e+00 0.000000e+00
6.829875e-02 -1.867685e-03 -1.878380e-02
9.044634e-02 -9.864473e-03 -1.763305e-02
9.393113e-02 -2.176664e-02 -1.684410e-02
8.818149e-02 -3.814471e-02 -1.119100e-02