# vtk DataFile Version 3.0
# Velocity/pressure data
ASCII
DATASET STRUCTURED_GRID
DIMENSIONS 21 21 21 POINTS 9261 DOUBLE
0.000000e+00 0.000000e+00 0.000000e+00
0.000000e+00 5.000000e-02 0.000000e+00
0.000000e+00 1.000000e-01 0.000000e+00
0.000000e+00 1.500000e-01 0.000000e+00
0.000000e+00 2.000000e-01 0.000000e+00
0.000000e+00 2.500000e-01 0.000000e+00
0.000000e+00 3.000000e-01 0.000000e+00
0.000000e+00 3.500000e-01 0.000000e+00
0.000000e+00 4.000000e-01 0.000000e+00
0.000000e+00 4.500000e-01 0.000000e+00
0.000000e+00 5.000000e-01 0.000000e+00
0.000000e+00 5.500000e-01 0.000000e+00
0.000000e+00 6.000000e-01 0.000000e+00
0.000000e+00 6.500000e-01 0.000000e+00
0.000000e+00 7.000000e-01 0.000000e+00
0.000000e+00 7.500000e-01 0.000000e+00
0.000000e+00 8.000000e-01 0.000000e+00
0.000000e+00 8.500000e-01 0.000000e+00
0.000000e+00 9.000000e-01 0.000000e+00
0.000000e+00 9.500000e-01 0.000000e+00
0.000000e+00 1.000000e+00 0.000000e+00
5.000000e-02 0.000000e+00 0.000000e+00
5.000000e-02 5.000000e-02 0.000000e+00
5.000000e-02 1.000000e-01 0.000000e+00
5.000000e-02 1.500000e-01 0.000000e+00
5.000000e-02 2.000000e-01 0.000000e+00
5.000000e-02 2.500000e-01 0.000000e+00
5.000000e-02 3.000000e-01 0.000000e+00
5.000000e-02 3.500000e-01 0.000000e+00
5.000000e-02 4.000000e-01 0.000000e+00
5.000000e-02 4.500000e-01 0.000000e+00
5.000000e-02 5.000000e-01 0.000000e+00
5.000000e-02 5.500000e-01 0.000000e+00
5.000000e-02 6.000000e-01 0.000000e+00
5.000000e-02 6.500000e-01 0.000000e+00
5.000000e-02 7.000000e-01 0.000000e+00
5.000000e-02 7.500000e-01 0.000000e+00
5.000000e-02 8.000000e-01 0.000000e+00
5.000000e-02 8.500000e-01 0.000000e+00
5.000000e-02 9.000000e-01 0.000000e+00
5.000000e-02 9.500000e-01 0.000000e+00
5.000000e-02 1.000000e+00 0.000000e+00
1.000000e-01 0.000000e+00 0.000000e+00
1.000000e-01 5.000000e-02 0.000000e+00
1.000000e-01 1.000000e-01 0.000000e+00
1.000000e-01 1.500000e-01 0.000000e+00
1.000000e-01 2.000000e-01 0.000000e+00
1.000000e-01 2.500000e-01 0.000000e+00
1.000000e-01 3.000000e-01 0.000000e+00
1.000000e-01 3.500000e-01 0.000000e+00
1.000000e-01 4.000000e-01 0.000000e+00
1.000000e-01 4.500000e-01 0.000000e+00
1.000000e-01 5.000000e-01 0.000000e+00
1.000000e-01 5.500000e-01 0.000000e+00
1.000000e-01 6.000000e-01 0.000000e+00
1.000000e-01 6.500000e-01 0.000000e+00
1.000000e-01 7.000000e-01 0.000000e+00
1.000000e-01 7.500000e-01 0.000000e+00
1.000000e-01 8.000000e-01 0.000000e+00
1.000000e-01 8.500000e-01 0.000000e+00
1.000000e-01 9.000000e-01 0.000000e+00
1.000000e-01 9.500000e-01 0.000000e+00
1.000000e-01 1.000000e+00 0.000000e+00
1.500000e-01 0.000000e+00 0.000000e+00
1.500000e-01 5.000000e-02 0.000000e+00
1.500000e-01 1.000000e-01 0.000000e+00
1.500000e-01 1.500000e-01 0.000000e+00
1.500000e-01 2.000000e-01 0.000000e+00
1.500000e-01 2.500000e-01 0.000000e+00
1.500000e-01 3.000000e-01 0.000000e+00
1.500000e-01 3.500000e-01 0.000000e+00
1.500000e-01 4.000000e-01 0.000000e+00
1.500000e-01 4.500000e-01 0.000000e+00
1.500000e-01 5.000000e-01 0.000000e+00
1.500000e-01 5.500000e-01 0.000000e+00
1.500000e-01 6.000000e-01 0.000000e+00
1.500000e-01 6.500000e-01 0.000000e+00
1.500000e-01 7.000000e-01 0.000000e+00
1.500000e-01 7.500000e-01 0.000000e+00
1.500000e-01 8.000000e-01 0.000000e+00
1.500000e-01 8.500000e-01 0.000000e+00
1.500000e-01 9.000000e-01 0.000000e+00
1.500000e-01 9.500000e-01 0.000000e+00
1.500000e-01 1.000000e+00 0.000000e+00
2.000000e-01 0.000000e+00 0.000000e+00
2.000000e-01 5.000000e-02 0.000000e+00
2.000000e-01 1.000000e-01 0.000000e+00
2.000000e-01 1.500000e-01 0.000000e+00
2.000000e-01 2.000000e-01 0.000000e+00
2.000000e-01 2.500000e-01 0.000000e+00
2.000000e-01 3.000000e-01 0.000000e+00
2.000000e-01 3.500000e-01 0.000000e+00
2.000000e-01 4.000000e-01 0.000000e+00
2.000000e-01 4.500000e-01 0.000000e+00
2.000000e-01 5.000000e-01 0.000000e+00
2.000000e-01 5.500000e-01 0.000000e+00
2.000000e-01 6.000000e-01 0.000000e+00
2.000000e-01 6.500000e-01 0.000000e+00
2.000000e-01 7.000000e-01 0.000000e+00
2.000000e-01 7.500000e-01 0.000000e+00
2.000000e-01 8.000000e-01 0.000000e+00
2.000000e-01 8.500000e-01 0.000000e+00
2.000000e-01 9.000000e-01 0.000000e+00
2.000000e-01 9.500000e-01 0.000000e+00
2.000000e-01 1.000000e+00 0.000000e+00
2.500000e-01 0.000000e+00 0.000000e+00
2.500000e-01 5.000000e-02 0.000000e+00
2.500000e-01 1.000000e-01 0.000000e+00
2.500000e-01 1.500000e-01 0.000000e+00
2.500000e-01 2.000000e-01 0.000000e+00
2.500000e-01 2.500000e-01 0.000000e+00
2.500000e-01 3.000000e-01 0.000000e+00
2.500000e-01 3.500000e-01 0.000000e+00
2.500000e-01 4.000000e-01 0.000000e+00
2.500000e-01 4.500000e-01 0.000000e+00
2.500000e-01 5.000000e-01 0.000000e+00
2.500000e-01 5.500000e-01 0.000000e+00
2.500000e-01 6.000000e-01 0.000000e+00
2.500000e-01 6.500000e-01 0.000000e+00
2.500000e-01 7.000000e-01 0.000000e+00
2.500000e-01 7.500000e-01 0.000000e+00
2.500000e-01 8.000000e-01 0.000000e+00
2.500000e-01 8.500000e-01 0.000000e+00
2.500000e-01 9.000000e-01 0.000000e+00
2.500000e-01 9.500000e-01 0.000000e+00
2.500000e-01 1.000000e+00 0.000000e+00
3.000000e-01 0.000000e+00 0.000000e+00
3.000000e-01 5.000000e-02 0.000000e+00
3.000000e-01 1.000000e-01 0.000000e+00
3.000000e-01 1.500000e-01 0.000000e+00
3.000000e-01 2.000000e-01 0.000000e+00
3.000000e-01 2.500000e-01 0.000000e+00
3.000000e-01 3.000000e-01 0.000000e+00
3.000000e-01 3.500000e-01 0.000000e+00
3.000000e-01 4.000000e-01 0.000000e+00
3.000000e-01 4.500000e-01 0.000000e+00
3.000000e-01 5.000000e-01 0.000000e+00
3.000000e-01 5.500000e-01 0.000000e+00
3.000000e-01 6.000000e-01 0.000000e+00
3.000000e-01 6.500000e-01 0.000000e+00
3.000000e-01 7.000000e-01 0.000000e+00
3.000000e-01 7.500000e-01 0.000000e+00
3.000000e-01 8.000000e-01 0.000000e+00
3.000000e-01 8.500000e-01 0.000000e+00
3.000000e-01 9.000000e-01 0.000000e+00
3.000000e-01 9.500000e-01 0.000000e+00
3.000000e-01 1.000000e+00 0.000000e+00
3.500000e-01 0.000000e+00 0.000000e+00
3.500000e-01 5.000000e-02 0.000000e+00
3.500000e-01 1.000000e-01 0.000000e+00
3.500000e-01 1.500000e-01 0.000000e+00
3.500000e-01 2.000000e-01 0.000000e+00
3.500000e-01 2.500000e-01 0.000000e+00
3.500000e-01 3.000000e-01 0.000000e+00
3.500000e-01 3.500000e-01 0.000000e+00
3.500000e-01 4.000000e-01 0.000000e+00
3.500000e-01 4.500000e-01 0.000000e+00
3.500000e-01 5.000000e-01 0.000000e+00
3.500000e-01 5.500000e-01 0.000000e+00
3.500000e-01 6.000000e-01 0.000000e+00
3.500000e-01 6.500000e-01 0.000000e+00
3.500000e-01 7.000000e-01 0.000000e+00
3.500000e-01 7.500000e-01 0.000000e+00
3.500000e-01 8.000000e-01 0.000000e+00
3.500000e-01 8.500000e-01 0.000000e+00
3.500000e-01 9.000000e-01 0.000000e+00
3.500000e-01 9.500000e-01 0.000000e+00
3.500000e-01 1.000000e+00 0.000000e+00
4.000000e-01 0.000000e+00 0.000000e+00
4.000000e-01 5.000000e-02 0.000000e+00
4.000000e-01 1.000000e-01 0.000000e+00
4.000000e-01 1.500000e-01 0.000000e+00
4.000000e-01 2.000000e-01 0.000000e+00
4.000000e-01 2.500000e-01 0.000000e+00
4.000000e-01 3.000000e-01 0.000000e+00
4.000000e-01 3.500000e-01 0.000000e+00
4.000000e-01 4.000000e-01 0.000000e+00
4.000000e-01 4.500000e-01 0.000000e+00
4.000000e-01 5.000000e-01 0.000000e+00
4.000000e-01 5.500000e-01 0.000000e+00
4.000000e-01 6.000000e-01 0.000000e+00
4.000000e-01 6.500000e-01 0.000000e+00
4.000000e-01 7.000000e-01 0.000000e+00
4.000000e-01 7.500000e-01 0.000000e+00
4.000000e-01 8.000000e-01 0.000000e+00
4.000000e-01 8.500000e-01 0.000000e+00
4.000000e-01 9.000000e-01 0.000000e+00
4.000000e-01 9.500000e-01 0.000000e+00
4.000000e-01 1.000000e+00 0.000000e+00
4.500000e-01 0.000000e+00 0.000000e+00
4.500000e-01 5.000000e-02 0.000000e+00
4.500000e-01 1.000000e-01 0.000000e+00
4.500000e-01 1.500000e-01 0.000000e+00
4.500000e-01 2.000000e-01 0.000000e+00
4.500000e-01 2.500000e-01 0.000000e+00
4.500000e-01 3.000000e-01 0.000000e+00
4.500000e-01 3.500000e-01 0.000000e+00
4.500000e-01 4.000000e-01 0.000000e+00
4.500000e-01 4.500000e-01 0.000000e+00
4.500000e-01 5.000000e-01 0.000000e+00
4.500000e-01 5.500000e-01 0.000000e+00
4.500000e-01 6.000000e-01 0.000000e+00
4.500000e-01 6.500000e-01 0.000000e+00
4.500000e-01 7.000000e-01 0.000000e+00
4.500000e-01 7.500000e-01 0.000000e+00
4.500000e-01 8.000000e-01 0.000000e+00
4.500000e-01 8.500000e-01 0.000000e+00
4.500000e-01 9.000000e-01 0.000000e+00
4.500000e-01 9.500000e-01 0.000000e+00
4.500000e-01 1.000000e+00 0.000000e+00
5.000000e-01 0.000000e+00 0.000000e+00
5.000000e-01 5.000000e-02 0.000000e+00
5.000000e-01 1.000000e-01 0.000000e+00
5.000000e-01 1.500000e-01 0.000000e+00
5.000000e-01 2.000000e-01 0.000000e+00
5.000000e-01 2.500000e-01 0.000000e+00
5.000000e-01 3.000000e-01 0.000000e+00
5.000000e-01 3.500000e-01 0.000000e+00
5.000000e-01 4.000000e-01 0.000000e+00
5.000000e-01 4.500000e-01 0.000000e+00
5.000000e-01 5.000000e-01 0.000000e+00
5.000000e-01 5.500000e-01 0.000000e+00
5.000000e-01 6.000000e-01 0.000000e+00
5.000000e-01 6.500000e-01 0.000000e+00
5.000000e-01 7.000000e-01 0.000000e+00
5.000000e-01 7.500000e-01 0.000000e+00
5.000000e-01 8.000000e-01 0.000000e+00
5.000000e-01 8.500000e-01 0.000000e+00
5.000000e-01 9.000000e-01 0.000000e+00
5.000000e-01 9.500000e-01 0.000000e+00
5.000000e-01 1.000000e+00 0.000000e+00
5.500000e-01 0.000000e+00 0.000000e+00
5.500000e-01 5.000000e-02 0.000000e+00
5.500000e-01 1.000000e-01 0.000000e+00
5.500000e-01 1.500000e-01 0.000000e+00
5.500000e-01 2.000000e-01 0.000000e+00
5.500000e-01 2.500000e-01 0.000000e+00
5.500000e-01 3.000000e-01 0.000000e+00
5.500000e-01 3.500000e-01 0.000000e+00
5.500000e-01 4.000000e-01 0.000000e+00
5.500000e-01 4.500000e-01 0.000000e+00
5.500000e-01 5.000000e-01 0.000000e+00
5.500000e-01 5.500000e-01 0.000000e+00
5.500000e-01 6.000000e-01 0.000000e+00
5.500000e-01 6.500000e-01 0.000000e+00
5.500000e-01 7.000000e-01 0.000000e+00
5.500000e-01 7.500000e-01 0.000000e+00
5.500000e-01 8.000000e-01 0.000000e+00
5.500000e-01 8.500000e-01 0.000000e+00
5.500000e-01 9.000000e-01 0.000000e+00
5.500000e-01 9.500000e-01 0.000000e+00
5.500000e-01 1.000000e+00 0.000000e+00
6.000000e-01 0.000000e+00 0.000000e+00
[...]
POINT_DATA 9261
VECTORS velocity_vectors DOUBLE
0.000000e+00 0.000000e+00 0.000000e+00
0.000000e+00 0.000000e+00 0.000000e+00
0.000000e+00 0.000000e+00 0.000000e+00
0.000000e+00 0.000000e+00 0.000000e+00
0.000000e+00 0.000000e+00 0.000000e+00
0.000000e+00 0.000000e+00 0.000000e+00
0.000000e+00 0.000000e+00 0.000000e+00
0.000000e+00 0.000000e+00 0.000000e+00
0.000000e+00 0.000000e+00 0.000000e+00
0.000000e+00 0.000000e+00 0.000000e+00
0.000000e+00 0.000000e+00 0.000000e+00
0.000000e+00 0.000000e+00 0.000000e+00
0.000000e+00 0.000000e+00 0.000000e+00
0.000000e+00 0.000000e+00 0.000000e+00
0.000000e+00 0.000000e+00 0.000000e+00
0.000000e+00 0.000000e+00 0.000000e+00
0.000000e+00 0.000000e+00 0.000000e+00
0.000000e+00 0.000000e+00 0.000000e+00
0.000000e+00 0.000000e+00 0.000000e+00
0.000000e+00 0.000000e+00 0.000000e+00
0.000000e+00 0.000000e+00 0.000000e+00
0.000000e+00 0.000000e+00 0.000000e+00
0.000000e+00 0.000000e+00 0.000000e+00
0.000000e+00 0.000000e+00 0.000000e+00
0.000000e+00 0.000000e+00 0.000000e+00
0.000000e+00 0.000000e+00 0.000000e+00
0.000000e+00 0.000000e+00 0.000000e+00
0.000000e+00 0.000000e+00 0.000000e+00
0.000000e+00 0.000000e+00 0.000000e+00
0.000000e+00 0.000000e+00 0.000000e+00
0.000000e+00 0.000000e+00 0.000000e+00
0.000000e+00 0.000000e+00 0.000000e+00
0.000000e+00 0.000000e+00 0.000000e+00
0.000000e+00 0.000000e+00 0.000000e+00
0.000000e+00 0.000000e+00 0.000000e+00
0.000000e+00 0.000000e+00 0.000000e+00
0.000000e+00 0.000000e+00 0.000000e+00
0.000000e+00 0.000000e+00 0.000000e+00
0.000000e+00 0.000000e+00 0.000000e+00
0.000000e+00 0.000000e+00 0.000000e+00
0.000000e+00 0.000000e+00 0.000000e+00
0.000000e+00 0.000000e+00 0.000000e+00
0.000000e+00 0.000000e+00 0.000000e+00
0.000000e+00 0.000000e+00 0.000000e+00
0.000000e+00 0.000000e+00 0.000000e+00
0.000000e+00 0.000000e+00 0.000000e+00
0.000000e+00 0.000000e+00 0.000000e+00
0.000000e+00 0.000000e+00 0.000000e+00
0.000000e+00 0.000000e+00 0.000000e+00
0.000000e+00 0.000000e+00 0.000000e+00
0.000000e+00 0.000000e+00 0.000000e+00
0.000000e+00 0.000000e+00 0.000000e+00
0.000000e+00 0.000000e+00 0.000000e+00
0.000000e+00 0.000000e+00 0.000000e+00
0.000000e+00 0.000000e+00 0.000000e+00
0.000000e+00 0.000000e+00 0.000000e+00
0.000000e+00 0.000000e+00 0.000000e+00
0.000000e+00 0.000000e+00 0.000000e+00
0.000000e+00 0.000000e+00 0.000000e+00
0.000000e+00 0.000000e+00 0.000000e+00
0.000000e+00 0.000000e+00 0.000000e+00
0.000000e+00 0.000000e+00 0.000000e+00
0.000000e+00 0.000000e+00 0.000000e+00
0.000000e+00 0.000000e+00 0.000000e+00
0.000000e+00 0.000000e+00 0.000000e+00
0.000000e+00 0.000000e+00 0.000000e+00
0.000000e+00 0.000000e+00 0.000000e+00
0.000000e+00 0.000000e+00 0.000000e+00
0.000000e+00 0.000000e+00 0.000000e+00
0.000000e+00 0.000000e+00 0.000000e+00
0.000000e+00 0.000000e+00 0.000000e+00
0.000000e+00 0.000000e+00 0.000000e+00
0.000000e+00 0.000000e+00 0.000000e+00
0.000000e+00 0.000000e+00 0.000000e+00
0.000000e+00 0.000000e+00 0.000000e+00
0.000000e+00 0.000000e+00 0.000000e+00
0.000000e+00 0.000000e+00 0.000000e+00
0.000000e+00 0.000000e+00 0.000000e+00
0.000000e+00 0.000000e+00 0.000000e+00
0.000000e+00 0.000000e+00 0.000000e+00
0.000000e+00 0.000000e+00 0.000000e+00
0.000000e+00 0.000000e+00 0.000000e+00
0.000000e+00 0.000000e+00 0.000000e+00
0.000000e+00 0.000000e+00 0.000000e+00
0.000000e+00 0.000000e+00 0.000000e+00
0.000000e+00 0.000000e+00 0.000000e+00
0.000000e+00 0.000000e+00 0.000000e+00
0.000000e+00 0.000000e+00 0.000000e+00
0.000000e+00 0.000000e+00 0.000000e+00
0.000000e+00 0.000000e+00 0.000000e+00
0.000000e+00 0.000000e+00 0.000000e+00
0.000000e+00 0.000000e+00 0.000000e+00
0.000000e+00 0.000000e+00 0.000000e+00
0.000000e+00 0.000000e+00 0.000000e+00
0.000000e+00 0.000000e+00 0.000000e+00
0.000000e+00 0.000000e+00 0.000000e+00
0.000000e+00 0.000000e+00 0.000000e+00
0.000000e+00 0.000000e+00 0.000000e+00
0.000000e+00 0.000000e+00 0.000000e+00
0.000000e+00 0.000000e+00 0.000000e+00
0.000000e+00 0.000000e+00 0.000000e+00
0.000000e+00 0.000000e+00 0.000000e+00
0.000000e+00 0.000000e+00 0.000000e+00
0.000000e+00 0.000000e+00 0.000000e+00
0.000000e+00 0.000000e+00 0.000000e+00
0.000000e+00 0.000000e+00 0.000000e+00
0.000000e+00 0.000000e+00 0.000000e+00
0.000000e+00 0.000000e+00 0.000000e+00
0.000000e+00 0.000000e+00 0.000000e+00
0.000000e+00 0.000000e+00 0.000000e+00
0.000000e+00 0.000000e+00 0.000000e+00
0.000000e+00 0.000000e+00 0.000000e+00
0.000000e+00 0.000000e+00 0.000000e+00
0.000000e+00 0.000000e+00 0.000000e+00
0.000000e+00 0.000000e+00 0.000000e+00
0.000000e+00 0.000000e+00 0.000000e+00
0.000000e+00 0.000000e+00 0.000000e+00
0.000000e+00 0.000000e+00 0.000000e+00
0.000000e+00 0.000000e+00 0.000000e+00
0.000000e+00 0.000000e+00 0.000000e+00
0.000000e+00 0.000000e+00 0.000000e+00
0.000000e+00 0.000000e+00 0.000000e+00
0.000000e+00 0.000000e+00 0.000000e+00
0.000000e+00 0.000000e+00 0.000000e+00
0.000000e+00 0.000000e+00 0.000000e+00
0.000000e+00 0.000000e+00 0.000000e+00
0.000000e+00 0.000000e+00 0.000000e+00
0.000000e+00 0.000000e+00 0.000000e+00
0.000000e+00 0.000000e+00 0.000000e+00
0.000000e+00 0.000000e+00 0.000000e+00
0.000000e+00 0.000000e+00 0.000000e+00
0.000000e+00 0.000000e+00 0.000000e+00
0.000000e+00 0.000000e+00 0.000000e+00
0.000000e+00 0.000000e+00 0.000000e+00
0.000000e+00 0.000000e+00 0.000000e+00
0.000000e+00 0.000000e+00 0.000000e+00
0.000000e+00 0.000000e+00 0.000000e+00
0.000000e+00 0.000000e+00 0.000000e+00
0.000000e+00 0.000000e+00 0.000000e+00
0.000000e+00 0.000000e+00 0.000000e+00
0.000000e+00 0.000000e+00 0.000000e+00
0.000000e+00 0.000000e+00 0.000000e+00
0.000000e+00 0.000000e+00 0.000000e+00
0.000000e+00 0.000000e+00 0.000000e+00
0.000000e+00 0.000000e+00 0.000000e+00
0.000000e+00 0.000000e+00 0.000000e+00
0.000000e+00 0.000000e+00 0.000000e+00
0.000000e+00 0.000000e+00 0.000000e+00
0.000000e+00 0.000000e+00 0.000000e+00
0.000000e+00 0.000000e+00 0.000000e+00
0.000000e+00 0.000000e+00 0.000000e+00
0.000000e+00 0.000000e+00 0.000000e+00
0.000000e+00 0.000000e+00 0.000000e+00
0.000000e+00 0.000000e+00 0.000000e+00
0.000000e+00 0.000000e+00 0.000000e+00
0.000000e+00 0.000000e+00 0.000000e+00
0.000000e+00 0.000000e+00 0.000000e+00
0.000000e+00 0.000000e+00 0.000000e+00
0.000000e+00 0.000000e+00 0.000000e+00
0.000000e+00 0.000000e+00 0.000000e+00
0.000000e+00 0.000000e+00 0.000000e+00
0.000000e+00 0.000000e+00 0.000000e+00
0.000000e+00 0.000000e+00 0.000000e+00
0.000000e+00 0.000000e+00 0.000000e+00
0.000000e+00 0.000000e+00 0.000000e+00
0.000000e+00 0.000000e+00 0.000000e+00
0.000000e+00 0.000000e+00 0.000000e+00
0.000000e+00 0.000000e+00 0.000000e+00
0.000000e+00 0.000000e+00 0.000000e+00
0.000000e+00 0.000000e+00 0.000000e+00
0.000000e+00 0.000000e+00 0.000000e+00
0.000000e+00 0.000000e+00 0.000000e+00
0.000000e+00 0.000000e+00 0.000000e+00
0.000000e+00 0.000000e+00 0.000000e+00
0.000000e+00 0.000000e+00 0.000000e+00
0.000000e+00 0.000000e+00 0.000000e+00
0.000000e+00 0.000000e+00 0.000000e+00
0.000000e+00 0.000000e+00 0.000000e+00
0.000000e+00 0.000000e+00 0.000000e+00
0.000000e+00 0.000000e+00 0.000000e+00
0.000000e+00 0.000000e+00 0.000000e+00
0.000000e+00 0.000000e+00 0.000000e+00
0.000000e+00 0.000000e+00 0.000000e+00
0.000000e+00 0.000000e+00 0.000000e+00
0.000000e+00 0.000000e+00 0.000000e+00
0.000000e+00 0.000000e+00 0.000000e+00
0.000000e+00 0.000000e+00 0.000000e+00
0.000000e+00 0.000000e+00 0.000000e+00
0.000000e+00 0.000000e+00 0.000000e+00
0.000000e+00 0.000000e+00 0.000000e+00
0.000000e+00 0.000000e+00 0.000000e+00
0.000000e+00 0.000000e+00 0.000000e+00
0.000000e+00 0.000000e+00 0.000000e+00
0.000000e+00 0.000000e+00 0.000000e+00
0.000000e+00 0.000000e+00 0.000000e+00
0.000000e+00 0.000000e+00 0.000000e+00
0.000000e+00 0.000000e+00 0.000000e+00
0.000000e+00 0.000000e+00 0.000000e+00
0.000000e+00 0.000000e+00 0.000000e+00
0.000000e+00 0.000000e+00 0.000000e+00
0.000000e+00 0.000000e+00 0.000000e+00
0.000000e+00 0.000000e+00 0.000000e+00
0.000000e+00 0.000000e+00 0.000000e+00
0.000000e+00 0.000000e+00 0.000000e+00
0.000000e+00 0.000000e+00 0.000000e+00
0.000000e+00 0.000000e+00 0.000000e+00
0.000000e+00 0.000000e+00 0.000000e+00
0.000000e+00 0.000000e+00 0.000000e+00
0.000000e+00 0.000000e+00 0.000000e+00
0.000000e+00 0.000000e+00 0.000000e+00
0.000000e+00 0.000000e+00 0.000000e+00
0.000000e+00 0.000000e+00 0.000000e+00
0.000000e+00 0.000000e+00 0.000000e+00
0.000000e+00 0.000000e+00 0.000000e+00
0.000000e+00 0.000000e+00 0.000000e+00
0.000000e+00 0.000000e+00 0.000000e+00
0.000000e+00 0.000000e+00 0.000000e+00
0.000000e+00 0.000000e+00 0.000000e+00
0.000000e+00 0.000000e+00 0.000000e+00
0.000000e+00 0.000000e+00 0.000000e+00
0.000000e+00 0.000000e+00 0.000000e+00
0.000000e+00 0.000000e+00 0.000000e+00
0.000000e+00 0.000000e+00 0.000000e+00
0.000000e+00 0.000000e+00 0.000000e+00
0.000000e+00 0.000000e+00 0.000000e+00
0.000000e+00 0.000000e+00 0.000000e+00
0.000000e+00 0.000000e+00 0.000000e+00
0.000000e+00 0.000000e+00 0.000000e+00
0.000000e+00 0.000000e+00 0.000000e+00
0.000000e+00 0.000000e+00 0.000000e+00
0.000000e+00 0.000000e+00 0.000000e+00
0.000000e+00 0.000000e+00 0.000000e+00
0.000000e+00 0.000000e+00 0.000000e+00
0.000000e+00 0.000000e+00 0.000000e+00
0.000000e+00 0.000000e+00 0.000000e+00
0.000000e+00 0.000000e+00 0.000000e+00
0.000000e+00 0.000000e+00 0.000000e+00
0.000000e+00 0.000000e+00 0.000000e+00
0.000000e+00 0.000000e+00 0.000000e+00
0.000000e+00 0.000000e+00 0.000000e+00
0.000000e+00 0.000000e+00 0.000000e+00
0.000000e+00 0.000000e+00 0.000000e+00
0.000000e+00 0.000000e+00 0.000000e+00
0.000000e+00 0.000000e+00 0.000000e+00
0.000000e+00 0.000000e+00 0.000000e+00
0.000000e+00 0.000000e+00 0.000000e+00
0.000000e+00 0.000000e+00 0.000000e+00
0.000000e+00 0.000000e+00 0.000000e+00
0.000000e+00 0.000000e+00 0.000000e+00
0.000000e+00 0.000000e+00 0.000000e+00
0.000000e+00 0.000000e+00 0.000000e+00
0.000000e+00 0.000000e+00 0.000000e+00
0.000000e+00 0.000000e+00 0.000000e+00
0.000000e+00 0.000000e+00 0.000000e+00
0.000000e+00 0.000000e+00 0.000000e+00
0.000000e+00 0.000000e+00 0.000000e+00
0.000000e+00 0.000000e+00 0.000000e+00
0.000000e+00 0.000000e+00 0.000000e+00
0.000000e+00 0.000000e+00 0.000000e+00
0.000000e+00 0.000000e+00 0.000000e+00
0.000000e+00 0.000000e+00 0.000000e+00
0.000000e+00 0.000000e+00 0.000000e+00
0.000000e+00 0.000000e+00 0.000000e+00
0.000000e+00 0.000000e+00 0.000000e+00
0.000000e+00 0.000000e+00 0.000000e+00
0.000000e+00 0.000000e+00 0.000000e+00
0.000000e+00 0.000000e+00 0.000000e+00
0.000000e+00 0.000000e+00 0.000000e+00
0.000000e+00 0.000000e+00 0.000000e+00
0.000000e+00 0.000000e+00 0.000000e+00
0.000000e+00 0.000000e+00 0.000000e+00
0.000000e+00 0.000000e+00 0.000000e+00
0.000000e+00 0.000000e+00 0.000000e+00
0.000000e+00 0.000000e+00 0.000000e+00
0.000000e+00 0.000000e+00 0.000000e+00
0.000000e+00 0.000000e+00 0.000000e+00
0.000000e+00 0.000000e+00 0.000000e+00
0.000000e+00 0.000000e+00 0.000000e+00
0.000000e+00 0.000000e+00 0.000000e+00
0.000000e+00 0.000000e+00 0.000000e+00
0.000000e+00 0.000000e+00 0.000000e+00
0.000000e+00 0.000000e+00 0.000000e+00
0.000000e+00 0.000000e+00 0.000000e+00
0.000000e+00 0.000000e+00 0.000000e+00
0.000000e+00 0.000000e+00 0.000000e+00
0.000000e+00 0.000000e+00 0.000000e+00
0.000000e+00 0.000000e+00 0.000000e+00
0.000000e+00 0.000000e+00 0.000000e+00
0.000000e+00 0.000000e+00 0.000000e+00
0.000000e+00 0.000000e+00 0.000000e+00
0.000000e+00 0.000000e+00 0.000000e+00
0.000000e+00 0.000000e+00 0.000000e+00
0.000000e+00 0.000000e+00 0.000000e+00
0.000000e+00 0.000000e+00 0.000000e+00
0.000000e+00 0.000000e+00 0.000000e+00
0.000000e+00 0.000000e+00 0.000000e+00
0.000000e+00 0.000000e+00 0.000000e+00
0.000000e+00 0.000000e+00 0.000000e+00
0.000000e+00 0.000000e+00 0.000000e+00
0.000000e+00 0.000000e+00 0.000000e+00
0.000000e+00 0.000000e+00 0.000000e+00
0.000000e+00 0.000000e+00 0.000000e+00
0.000000e+00 0.000000e+00 0.000000e+00
0.000000e+00 0.000000e+00 0.000000e+00
0.000000e+00 0.000000e+00 0.000000e+00
0.000000e+00 0.000000e+00 0.000000e+00
0.000000e+00 0.000000e+00 0.000000e+00
0.000000e+00 0.000000e+00 0.000000e+00
0.000000e+00 0.000000e+00 0.000000e+00
0.000000e+00 0.000000e+00 0.000000e+00
0.000000e+00 0.000000e+00 0.000000e+00
0.000000e+00 0.000000e+00 0.000000e+00
0.000000e+00 0.000000e+00 0.000000e+00
0.000000e+00 0.000000e+00 0.000000e+00
0.000000e+00 0.000000e+00 0.000000e+00
0.000000e+00 0.000000e+00 0.000000e+00
0.000000e+00 0.000000e+00 0.000000e+00
0.000000e+00 0.000000e+00 0.000000e+00
0.000000e+00 0.000000e+00 0.000000e+00
0.000000e+00 0.000000e+00 0.000000e+00
0.000000e+00 0.000000e+00 0.000000e+00
0.000000e+00 0.000000e+00 0.000000e+00
0.000000e+00 0.000000e+00 0.000000e+00
0.000000e+00 0.000000e+00 0.000000e+00
0.000000e+00 0.000000e+00 0.000000e+00
0.000000e+00 0.000000e+00 0.000000e+00
0.000000e+00 0.000000e+00 0.000000e+00
0.000000e+00 0.000000e+00 0.000000e+00
0.000000e+00 0.000000e+00 0.000000e+00
0.000000e+00 0.000000e+00 0.000000e+00
0.000000e+00 0.000000e+00 0.000000e+00
0.000000e+00 0.000000e+00 0.000000e+00
0.000000e+00 0.000000e+00 0.000000e+00
0.000000e+00 0.000000e+00 0.000000e+00
0.000000e+00 0.000000e+00 0.000000e+00
0.000000e+00 0.000000e+00 0.000000e+00
0.000000e+00 0.000000e+00 0.000000e+00
0.000000e+00 0.000000e+00 0.000000e+00
0.000000e+00 0.000000e+00 0.000000e+00
0.000000e+00 0.000000e+00 0.000000e+00
0.000000e+00 0.000000e+00 0.000000e+00
0.000000e+00 0.000000e+00 0.000000e+00
0.000000e+00 0.000000e+00 0.000000e+00
0.000000e+00 0.000000e+00 0.000000e+00
0.000000e+00 0.000000e+00 0.000000e+00
0.000000e+00 0.000000e+00 0.000000e+00
0.000000e+00 0.000000e+00 0.000000e+00
0.000000e+00 0.000000e+00 0.000000e+00
0.000000e+00 0.000000e+00 0.000000e+00
0.000000e+00 0.000000e+00 0.000000e+00
0.000000e+00 0.000000e+00 0.000000e+00
0.000000e+00 0.000000e+00 0.000000e+00
0.000000e+00 0.000000e+00 0.000000e+00
0.000000e+00 0.000000e+00 0.000000e+00
0.000000e+00 0.000000e+00 0.000000e+00
0.000000e+00 0.000000e+00 0.000000e+00
0.000000e+00 0.000000e+00 0.000000e+00
0.000000e+00 0.000000e+00 0.000000e+00
0.000000e+00 0.000000e+00 0.000000e+00
0.000000e+00 0.000000e+00 0.000000e+00
0.000000e+00 0.000000e+00 0.000000e+00
0.000000e+00 0.000000e+00 0.000000e+00
0.000000e+00 0.000000e+00 0.000000e+00
0.000000e+00 0.000000e+00 0.000000e+00
0.000000e+00 0.000000e+00 0.000000e+00
0.000000e+00 0.000000e+00 0.000000e+00
0.000000e+00 0.000000e+00 0.000000e+00
0.000000e+00 0.000000e+00 0.000000e+00
0.000000e+00 0.000000e+00 0.000000e+00
0.000000e+00 0.000000e+00 0.000000e+00
0.000000e+00 0.000000e+00 0.000000e+00
0.000000e+00 0.000000e+00 0.000000e+00
0.000000e+00 0.000000e+00 0.000000e+00
0.000000e+00 0.000000e+00 0.000000e+00
0.000000e+00 0.000000e+00 0.000000e+00
0.000000e+00 0.000000e+00 0.000000e+00
0.000000e+00 0.000000e+00 0.000000e+00
0.000000e+00 0.000000e+00 0.000000e+00
0.000000e+00 0.000000e+00 0.000000e+00
0.000000e+00 0.000000e+00 0.000000e+00
0.000000e+00 0.000000e+00 0.000000e+00
0.000000e+00 0.000000e+00 0.000000e+00
0.000000e+00 0.000000e+00 0.000000e+00
0.000000e+00 0.000000e+00 0.000000e+00
0.000000e+00 0.000000e+00 0.000000e+00
0.000000e+00 0.000000e+00 0.000000e+00
0.000000e+00 0.000000e+00 0.000000e+00
0.000000e+00 0.000000e+00 0.000000e+00
0.000000e+00 0.000000e+00 0.000000e+00
0.000000e+00 0.000000e+00 0.000000e+00
0.000000e+00 0.000000e+00 0.000000e+00
0.000000e+00 0.000000e+00 0.000000e+00
0.000000e+00 0.000000e+00 0.000000e+00
0.000000e+00 0.000000e+00 0.000000e+00
0.000000e+00 0.000000e+00 0.000000e+00
0.000000e+00 0.000000e+00 0.000000e+00
0.000000e+00 0.000000e+00 0.000000e+00
0.000000e+00 0.000000e+00 0.000000e+00
0.000000e+00 0.000000e+00 0.000000e+00
0.000000e+00 0.000000e+00 0.000000e+00
0.000000e+00 0.000000e+00 0.000000e+00
0.000000e+00 0.000000e+00 0.000000e+00
0.000000e+00 0.000000e+00 0.000000e+00
0.000000e+00 0.000000e+00 0.000000e+00
0.000000e+00 0.000000e+00 0.000000e+00
0.000000e+00 0.000000e+00 0.000000e+00
0.000000e+00 0.000000e+00 0.000000e+00
0.000000e+00 0.000000e+00 0.000000e+00
0.000000e+00 0.000000e+00 0.000000e+00
0.000000e+00 0.000000e+00 0.000000e+00
0.000000e+00 0.000000e+00 0.000000e+00
0.000000e+00 0.000000e+00 0.000000e+00
0.000000e+00 0.000000e+00 0.000000e+00
0.000000e+00 0.000000e+00 0.000000e+00
0.000000e+00 0.000000e+00 0.000000e+00
0.000000e+00 0.000000e+00 0.000000e+00
0.000000e+00 0.000000e+00 0.000000e+00
0.000000e+00 0.000000e+00 0.000000e+00
0.000000e+00 0.000000e+00 0.000000e+00
0.000000e+00 0.000000e+00 0.000000e+00
0.000000e+00 0.000000e+00 0.000000e+00
0.000000e+00 0.000000e+00 0.000000e+00
0.000000e+00 0.000000e+00 0.000000e+00
0.000000e+00 0.000000e+00 0.000000e+00
0.000000e+00 0.000000e+00 0.000000e+00
0.000000e+00 0.000000e+00 0.000000e+00
0.000000e+00 0.000000e+00 0.000000e+00
0.000000e+00 0.000000e+00 0.000000e+00
0.000000e+00 0.000000e+00 0.000000e+00
0.000000e+00 0.000000e+00 0.000000e+00
0.000000e+00 0.000000e+00 0.000000e+00
0.000000e+00 0.000000e+00 0.000000e+00
0.000000e+00 0.000000e+00 0.000000e+00
0.000000e+00 0.000000e+00 0.000000e+00
0.000000e+00 0.000000e+00 0.000000e+00
0.000000e+00 0.000000e+00 0.000000e+00
0.000000e+00 0.000000e+00 0.000000e+00
0.000000e+00 0.000000e+00 0.000000e+00
0.000000e+00 0.000000e+00 0.000000e+00
0.000000e+00 0.000000e+00 0.000000e+00
0.000000e+00 0.000000e+00 0.000000e+00
0.000000e+00 0.000000e+00 0.000000e+00
0.000000e+00 0.000000e+00 0.000000e+00
0.000000e+00 0.000000e+00 0.000000e+00
0.000000e+00 0.000000e+00 0.000000e+00
0.000000e+00 0.000000e+00 0.000000e+00
0.000000e+00 0.000000e+00 0.000000e+00
0.000000e+00 0.000000e+00 0.000000e+00
0.000000e+00 0.000000e+00 0.000000e+00
0.000000e+00 0.000000e+00 0.000000e+00
0.000000e+00 0.000000e+00 0.000000e+00
0.000000e+00 0.000000e+00 0.000000e+00
0.000000e+00 0.000000e+00 0.000000e+00
0.000000e+00 0.000000e+00 0.000000e+00
0.000000e+00 0.000000e+00 0.000000e+00
0.000000e+00 0.000000e+00 0.000000e+00
0.000000e+00 0.000000e+00 0.000000e+00
0.000000e+00 0.000000e+00 0.000000e+00
0.000000e+00 0.000000e+00 0.000000e+00
0.000000e+00 0.000000e+00 0.000000e+00
0.000000e+00 0.000000e+00 0.000000e+00
0.000000e+00 0.000000e+00 0.000000e+00
0.000000e+00 0.000000e+00 0.000000e+00
1.342499e-02 4.269030e-03 -1.488361e-02
1.917775e-02 7.128512e-03 -1.656353e-02
2.000914e-02 7.454083e-03 -1.664696e-02
2.147079e-02 2.657044e-03 -1.241555e-02
2.087687e-02 -2.690315e-03 -1.464181e-02
2.312213e-02 -7.457576e-03 -9.297420e-03
2.338574e-02 -1.112733e-02 -1.335966e-02
2.706163e-02 -1.334287e-02 -7.655658e-03
2.831387e-02 -1.453561e-02 -1.260493e-02
3.297716e-02 -1.468533e-02 -6.690618e-03
3.454960e-02 -1.426662e-02 -1.203472e-02
3.929194e-02 -1.337650e-02 -6.081325e-03
4.035141e-02 -1.225818e-02 -1.161857e-02
4.414889e-02 -1.093817e-02 -5.736105e-03
4.348036e-02 -9.509744e-03 -1.121791e-02
4.502290e-02 -7.863135e-03 -5.360697e-03
4.194657e-02 -6.169512e-03 -1.077387e-02
3.840077e-02 -4.507350e-03 -4.338999e-03
2.503769e-02 -3.071076e-03 -7.768997e-03
0.000000e+00 0.000000e+00 0.000000e+00
0.000000e+00 0.000000e+00 0.000000e+00
4.005085e-02 4.041719e-03 -1.974450e-02
5.271958e-02 5.377971e-03 -1.810839e-02
5.610269e-02 4.399494e-03 -1.955245e-02
5.515172e-02 -2.454103e-03 -7.704103e-03
5.565847e-02 -9.547938e-03 -1.502932e-02
5.668442e-02 -1.591480e-02 -1.715647e-03
6.138904e-02 -2.050528e-02 -1.256705e-02
6.685584e-02 -2.317061e-02 7.753866e-04
7.570894e-02 -2.429033e-02 -1.141543e-02
8.416504e-02 -2.402562e-02 1.861596e-03
9.477539e-02 -2.294111e-02 -1.074755e-02
1.033130e-01 -2.120414e-02 2.326299e-03
1.124373e-01 -1.916779e-02 -1.036656e-02
1.175614e-01 -1.683156e-02 2.419595e-03
1.213506e-01 -1.436625e-02 -9.925826e-03
1.189068e-01 -1.145735e-02 2.673441e-03
1.122850e-01 -8.588333e-03 -9.111174e-03
9.404604e-02 -5.682892e-03 3.599238e-03
6.183078e-02 -3.897958e-03 -4.166899e-03
0.000000e+00 0.000000e+00 0.000000e+00
0.000000e+00 0.000000e+00 0.000000e+00
7.040900e-02 8.829072e-04 -2.196358e-02
9.253149e-02 -1.340074e-03 -2.144986e-02
9.761098e-02 -5.681122e-03 -2.299877e-02
9.722653e-02 -1.378916e-02 -1.614455e-02