# vtk DataFile Version 3.0
# Velocity/pressure data
ASCII
DATASET STRUCTURED_GRID
DIMENSIONS 21 21 21 POINTS 9261 DOUBLE
0.000000e+00 0.000000e+00 0.000000e+00
0.000000e+00 5.000000e-02 0.000000e+00
0.000000e+00 1.000000e-01 0.000000e+00
0.000000e+00 1.500000e-01 0.000000e+00
0.000000e+00 2.000000e-01 0.000000e+00
0.000000e+00 2.500000e-01 0.000000e+00
0.000000e+00 3.000000e-01 0.000000e+00
0.000000e+00 3.500000e-01 0.000000e+00
0.000000e+00 4.000000e-01 0.000000e+00
0.000000e+00 4.500000e-01 0.000000e+00
0.000000e+00 5.000000e-01 0.000000e+00
0.000000e+00 5.500000e-01 0.000000e+00
0.000000e+00 6.000000e-01 0.000000e+00
0.000000e+00 6.500000e-01 0.000000e+00
0.000000e+00 7.000000e-01 0.000000e+00
0.000000e+00 7.500000e-01 0.000000e+00
0.000000e+00 8.000000e-01 0.000000e+00
0.000000e+00 8.500000e-01 0.000000e+00
0.000000e+00 9.000000e-01 0.000000e+00
0.000000e+00 9.500000e-01 0.000000e+00
0.000000e+00 1.000000e+00 0.000000e+00
5.000000e-02 0.000000e+00 0.000000e+00
5.000000e-02 5.000000e-02 0.000000e+00
5.000000e-02 1.000000e-01 0.000000e+00
5.000000e-02 1.500000e-01 0.000000e+00
5.000000e-02 2.000000e-01 0.000000e+00
5.000000e-02 2.500000e-01 0.000000e+00
5.000000e-02 3.000000e-01 0.000000e+00
5.000000e-02 3.500000e-01 0.000000e+00
5.000000e-02 4.000000e-01 0.000000e+00
5.000000e-02 4.500000e-01 0.000000e+00
5.000000e-02 5.000000e-01 0.000000e+00
5.000000e-02 5.500000e-01 0.000000e+00
5.000000e-02 6.000000e-01 0.000000e+00
5.000000e-02 6.500000e-01 0.000000e+00
5.000000e-02 7.000000e-01 0.000000e+00
5.000000e-02 7.500000e-01 0.000000e+00
5.000000e-02 8.000000e-01 0.000000e+00
5.000000e-02 8.500000e-01 0.000000e+00
5.000000e-02 9.000000e-01 0.000000e+00
5.000000e-02 9.500000e-01 0.000000e+00
5.000000e-02 1.000000e+00 0.000000e+00
1.000000e-01 0.000000e+00 0.000000e+00
1.000000e-01 5.000000e-02 0.000000e+00
1.000000e-01 1.000000e-01 0.000000e+00
1.000000e-01 1.500000e-01 0.000000e+00
1.000000e-01 2.000000e-01 0.000000e+00
1.000000e-01 2.500000e-01 0.000000e+00
1.000000e-01 3.000000e-01 0.000000e+00
1.000000e-01 3.500000e-01 0.000000e+00
1.000000e-01 4.000000e-01 0.000000e+00
1.000000e-01 4.500000e-01 0.000000e+00
1.000000e-01 5.000000e-01 0.000000e+00
1.000000e-01 5.500000e-01 0.000000e+00
1.000000e-01 6.000000e-01 0.000000e+00
1.000000e-01 6.500000e-01 0.000000e+00
1.000000e-01 7.000000e-01 0.000000e+00
1.000000e-01 7.500000e-01 0.000000e+00
1.000000e-01 8.000000e-01 0.000000e+00
1.000000e-01 8.500000e-01 0.000000e+00
1.000000e-01 9.000000e-01 0.000000e+00
1.000000e-01 9.500000e-01 0.000000e+00
1.000000e-01 1.000000e+00 0.000000e+00
1.500000e-01 0.000000e+00 0.000000e+00
1.500000e-01 5.000000e-02 0.000000e+00
1.500000e-01 1.000000e-01 0.000000e+00
1.500000e-01 1.500000e-01 0.000000e+00
1.500000e-01 2.000000e-01 0.000000e+00
1.500000e-01 2.500000e-01 0.000000e+00
1.500000e-01 3.000000e-01 0.000000e+00
1.500000e-01 3.500000e-01 0.000000e+00
1.500000e-01 4.000000e-01 0.000000e+00
1.500000e-01 4.500000e-01 0.000000e+00
1.500000e-01 5.000000e-01 0.000000e+00
1.500000e-01 5.500000e-01 0.000000e+00
1.500000e-01 6.000000e-01 0.000000e+00
1.500000e-01 6.500000e-01 0.000000e+00
1.500000e-01 7.000000e-01 0.000000e+00
1.500000e-01 7.500000e-01 0.000000e+00
1.500000e-01 8.000000e-01 0.000000e+00
1.500000e-01 8.500000e-01 0.000000e+00
1.500000e-01 9.000000e-01 0.000000e+00
1.500000e-01 9.500000e-01 0.000000e+00
1.500000e-01 1.000000e+00 0.000000e+00
2.000000e-01 0.000000e+00 0.000000e+00
2.000000e-01 5.000000e-02 0.000000e+00
2.000000e-01 1.000000e-01 0.000000e+00
2.000000e-01 1.500000e-01 0.000000e+00
2.000000e-01 2.000000e-01 0.000000e+00
2.000000e-01 2.500000e-01 0.000000e+00
2.000000e-01 3.000000e-01 0.000000e+00
2.000000e-01 3.500000e-01 0.000000e+00
2.000000e-01 4.000000e-01 0.000000e+00
2.000000e-01 4.500000e-01 0.000000e+00
2.000000e-01 5.000000e-01 0.000000e+00
2.000000e-01 5.500000e-01 0.000000e+00
2.000000e-01 6.000000e-01 0.000000e+00
2.000000e-01 6.500000e-01 0.000000e+00
2.000000e-01 7.000000e-01 0.000000e+00
2.000000e-01 7.500000e-01 0.000000e+00
2.000000e-01 8.000000e-01 0.000000e+00
2.000000e-01 8.500000e-01 0.000000e+00
2.000000e-01 9.000000e-01 0.000000e+00
2.000000e-01 9.500000e-01 0.000000e+00
2.000000e-01 1.000000e+00 0.000000e+00
2.500000e-01 0.000000e+00 0.000000e+00
2.500000e-01 5.000000e-02 0.000000e+00
2.500000e-01 1.000000e-01 0.000000e+00
2.500000e-01 1.500000e-01 0.000000e+00
2.500000e-01 2.000000e-01 0.000000e+00
2.500000e-01 2.500000e-01 0.000000e+00
2.500000e-01 3.000000e-01 0.000000e+00
2.500000e-01 3.500000e-01 0.000000e+00
2.500000e-01 4.000000e-01 0.000000e+00
2.500000e-01 4.500000e-01 0.000000e+00
2.500000e-01 5.000000e-01 0.000000e+00
2.500000e-01 5.500000e-01 0.000000e+00
2.500000e-01 6.000000e-01 0.000000e+00
2.500000e-01 6.500000e-01 0.000000e+00
2.500000e-01 7.000000e-01 0.000000e+00
2.500000e-01 7.500000e-01 0.000000e+00
2.500000e-01 8.000000e-01 0.000000e+00
2.500000e-01 8.500000e-01 0.000000e+00
2.500000e-01 9.000000e-01 0.000000e+00
2.500000e-01 9.500000e-01 0.000000e+00
2.500000e-01 1.000000e+00 0.000000e+00
3.000000e-01 0.000000e+00 0.000000e+00
3.000000e-01 5.000000e-02 0.000000e+00
3.000000e-01 1.000000e-01 0.000000e+00
3.000000e-01 1.500000e-01 0.000000e+00
3.000000e-01 2.000000e-01 0.000000e+00
3.000000e-01 2.500000e-01 0.000000e+00
3.000000e-01 3.000000e-01 0.000000e+00
3.000000e-01 3.500000e-01 0.000000e+00
3.000000e-01 4.000000e-01 0.000000e+00
3.000000e-01 4.500000e-01 0.000000e+00
3.000000e-01 5.000000e-01 0.000000e+00
3.000000e-01 5.500000e-01 0.000000e+00
3.000000e-01 6.000000e-01 0.000000e+00
3.000000e-01 6.500000e-01 0.000000e+00
3.000000e-01 7.000000e-01 0.000000e+00
3.000000e-01 7.500000e-01 0.000000e+00
3.000000e-01 8.000000e-01 0.000000e+00
3.000000e-01 8.500000e-01 0.000000e+00
3.000000e-01 9.000000e-01 0.000000e+00
3.000000e-01 9.500000e-01 0.000000e+00
3.000000e-01 1.000000e+00 0.000000e+00
3.500000e-01 0.000000e+00 0.000000e+00
3.500000e-01 5.000000e-02 0.000000e+00
3.500000e-01 1.000000e-01 0.000000e+00
3.500000e-01 1.500000e-01 0.000000e+00
3.500000e-01 2.000000e-01 0.000000e+00
3.500000e-01 2.500000e-01 0.000000e+00
3.500000e-01 3.000000e-01 0.000000e+00
3.500000e-01 3.500000e-01 0.000000e+00
3.500000e-01 4.000000e-01 0.000000e+00
3.500000e-01 4.500000e-01 0.000000e+00
3.500000e-01 5.000000e-01 0.000000e+00
3.500000e-01 5.500000e-01 0.000000e+00
3.500000e-01 6.000000e-01 0.000000e+00
3.500000e-01 6.500000e-01 0.000000e+00
3.500000e-01 7.000000e-01 0.000000e+00
3.500000e-01 7.500000e-01 0.000000e+00
3.500000e-01 8.000000e-01 0.000000e+00
3.500000e-01 8.500000e-01 0.000000e+00
3.500000e-01 9.000000e-01 0.000000e+00
3.500000e-01 9.500000e-01 0.000000e+00
3.500000e-01 1.000000e+00 0.000000e+00
4.000000e-01 0.000000e+00 0.000000e+00
4.000000e-01 5.000000e-02 0.000000e+00
4.000000e-01 1.000000e-01 0.000000e+00
4.000000e-01 1.500000e-01 0.000000e+00
4.000000e-01 2.000000e-01 0.000000e+00
4.000000e-01 2.500000e-01 0.000000e+00
4.000000e-01 3.000000e-01 0.000000e+00
4.000000e-01 3.500000e-01 0.000000e+00
4.000000e-01 4.000000e-01 0.000000e+00
4.000000e-01 4.500000e-01 0.000000e+00
4.000000e-01 5.000000e-01 0.000000e+00
4.000000e-01 5.500000e-01 0.000000e+00
4.000000e-01 6.000000e-01 0.000000e+00
4.000000e-01 6.500000e-01 0.000000e+00
4.000000e-01 7.000000e-01 0.000000e+00
4.000000e-01 7.500000e-01 0.000000e+00
4.000000e-01 8.000000e-01 0.000000e+00
4.000000e-01 8.500000e-01 0.000000e+00
4.000000e-01 9.000000e-01 0.000000e+00
4.000000e-01 9.500000e-01 0.000000e+00
4.000000e-01 1.000000e+00 0.000000e+00
4.500000e-01 0.000000e+00 0.000000e+00
4.500000e-01 5.000000e-02 0.000000e+00
4.500000e-01 1.000000e-01 0.000000e+00
4.500000e-01 1.500000e-01 0.000000e+00
4.500000e-01 2.000000e-01 0.000000e+00
4.500000e-01 2.500000e-01 0.000000e+00
4.500000e-01 3.000000e-01 0.000000e+00
4.500000e-01 3.500000e-01 0.000000e+00
4.500000e-01 4.000000e-01 0.000000e+00
4.500000e-01 4.500000e-01 0.000000e+00
4.500000e-01 5.000000e-01 0.000000e+00
4.500000e-01 5.500000e-01 0.000000e+00
4.500000e-01 6.000000e-01 0.000000e+00
4.500000e-01 6.500000e-01 0.000000e+00
4.500000e-01 7.000000e-01 0.000000e+00
4.500000e-01 7.500000e-01 0.000000e+00
4.500000e-01 8.000000e-01 0.000000e+00
4.500000e-01 8.500000e-01 0.000000e+00
4.500000e-01 9.000000e-01 0.000000e+00
4.500000e-01 9.500000e-01 0.000000e+00
4.500000e-01 1.000000e+00 0.000000e+00
5.000000e-01 0.000000e+00 0.000000e+00
5.000000e-01 5.000000e-02 0.000000e+00
5.000000e-01 1.000000e-01 0.000000e+00
5.000000e-01 1.500000e-01 0.000000e+00
5.000000e-01 2.000000e-01 0.000000e+00
5.000000e-01 2.500000e-01 0.000000e+00
5.000000e-01 3.000000e-01 0.000000e+00
5.000000e-01 3.500000e-01 0.000000e+00
5.000000e-01 4.000000e-01 0.000000e+00
5.000000e-01 4.500000e-01 0.000000e+00
5.000000e-01 5.000000e-01 0.000000e+00
5.000000e-01 5.500000e-01 0.000000e+00
5.000000e-01 6.000000e-01 0.000000e+00
5.000000e-01 6.500000e-01 0.000000e+00
5.000000e-01 7.000000e-01 0.000000e+00
5.000000e-01 7.500000e-01 0.000000e+00
5.000000e-01 8.000000e-01 0.000000e+00
5.000000e-01 8.500000e-01 0.000000e+00
5.000000e-01 9.000000e-01 0.000000e+00
5.000000e-01 9.500000e-01 0.000000e+00
5.000000e-01 1.000000e+00 0.000000e+00
5.500000e-01 0.000000e+00 0.000000e+00
5.500000e-01 5.000000e-02 0.000000e+00
5.500000e-01 1.000000e-01 0.000000e+00
5.500000e-01 1.500000e-01 0.000000e+00
5.500000e-01 2.000000e-01 0.000000e+00
5.500000e-01 2.500000e-01 0.000000e+00
5.500000e-01 3.000000e-01 0.000000e+00
5.500000e-01 3.500000e-01 0.000000e+00
5.500000e-01 4.000000e-01 0.000000e+00
5.500000e-01 4.500000e-01 0.000000e+00
5.500000e-01 5.000000e-01 0.000000e+00
5.500000e-01 5.500000e-01 0.000000e+00
5.500000e-01 6.000000e-01 0.000000e+00
5.500000e-01 6.500000e-01 0.000000e+00
5.500000e-01 7.000000e-01 0.000000e+00
5.500000e-01 7.500000e-01 0.000000e+00
5.500000e-01 8.000000e-01 0.000000e+00
5.500000e-01 8.500000e-01 0.000000e+00
5.500000e-01 9.000000e-01 0.000000e+00
5.500000e-01 9.500000e-01 0.000000e+00
5.500000e-01 1.000000e+00 0.000000e+00
6.000000e-01 0.000000e+00 0.000000e+00
[...]
POINT_DATA 9261
VECTORS velocity_vectors DOUBLE
0.000000e+00 0.000000e+00 0.000000e+00
0.000000e+00 0.000000e+00 0.000000e+00
0.000000e+00 0.000000e+00 0.000000e+00
0.000000e+00 0.000000e+00 0.000000e+00
0.000000e+00 0.000000e+00 0.000000e+00
0.000000e+00 0.000000e+00 0.000000e+00
0.000000e+00 0.000000e+00 0.000000e+00
0.000000e+00 0.000000e+00 0.000000e+00
0.000000e+00 0.000000e+00 0.000000e+00
0.000000e+00 0.000000e+00 0.000000e+00
0.000000e+00 0.000000e+00 0.000000e+00
0.000000e+00 0.000000e+00 0.000000e+00
0.000000e+00 0.000000e+00 0.000000e+00
0.000000e+00 0.000000e+00 0.000000e+00
0.000000e+00 0.000000e+00 0.000000e+00
0.000000e+00 0.000000e+00 0.000000e+00
0.000000e+00 0.000000e+00 0.000000e+00
0.000000e+00 0.000000e+00 0.000000e+00
0.000000e+00 0.000000e+00 0.000000e+00
0.000000e+00 0.000000e+00 0.000000e+00
0.000000e+00 0.000000e+00 0.000000e+00
0.000000e+00 0.000000e+00 0.000000e+00
0.000000e+00 0.000000e+00 0.000000e+00
0.000000e+00 0.000000e+00 0.000000e+00
0.000000e+00 0.000000e+00 0.000000e+00
0.000000e+00 0.000000e+00 0.000000e+00
0.000000e+00 0.000000e+00 0.000000e+00
0.000000e+00 0.000000e+00 0.000000e+00
0.000000e+00 0.000000e+00 0.000000e+00
0.000000e+00 0.000000e+00 0.000000e+00
0.000000e+00 0.000000e+00 0.000000e+00
0.000000e+00 0.000000e+00 0.000000e+00
0.000000e+00 0.000000e+00 0.000000e+00
0.000000e+00 0.000000e+00 0.000000e+00
0.000000e+00 0.000000e+00 0.000000e+00
0.000000e+00 0.000000e+00 0.000000e+00
0.000000e+00 0.000000e+00 0.000000e+00
0.000000e+00 0.000000e+00 0.000000e+00
0.000000e+00 0.000000e+00 0.000000e+00
0.000000e+00 0.000000e+00 0.000000e+00
0.000000e+00 0.000000e+00 0.000000e+00
0.000000e+00 0.000000e+00 0.000000e+00
0.000000e+00 0.000000e+00 0.000000e+00
0.000000e+00 0.000000e+00 0.000000e+00
0.000000e+00 0.000000e+00 0.000000e+00
0.000000e+00 0.000000e+00 0.000000e+00
0.000000e+00 0.000000e+00 0.000000e+00
0.000000e+00 0.000000e+00 0.000000e+00
0.000000e+00 0.000000e+00 0.000000e+00
0.000000e+00 0.000000e+00 0.000000e+00
0.000000e+00 0.000000e+00 0.000000e+00
0.000000e+00 0.000000e+00 0.000000e+00
0.000000e+00 0.000000e+00 0.000000e+00
0.000000e+00 0.000000e+00 0.000000e+00
0.000000e+00 0.000000e+00 0.000000e+00
0.000000e+00 0.000000e+00 0.000000e+00
0.000000e+00 0.000000e+00 0.000000e+00
0.000000e+00 0.000000e+00 0.000000e+00
0.000000e+00 0.000000e+00 0.000000e+00
0.000000e+00 0.000000e+00 0.000000e+00
0.000000e+00 0.000000e+00 0.000000e+00
0.000000e+00 0.000000e+00 0.000000e+00
0.000000e+00 0.000000e+00 0.000000e+00
0.000000e+00 0.000000e+00 0.000000e+00
0.000000e+00 0.000000e+00 0.000000e+00
0.000000e+00 0.000000e+00 0.000000e+00
0.000000e+00 0.000000e+00 0.000000e+00
0.000000e+00 0.000000e+00 0.000000e+00
0.000000e+00 0.000000e+00 0.000000e+00
0.000000e+00 0.000000e+00 0.000000e+00
0.000000e+00 0.000000e+00 0.000000e+00
0.000000e+00 0.000000e+00 0.000000e+00
0.000000e+00 0.000000e+00 0.000000e+00
0.000000e+00 0.000000e+00 0.000000e+00
0.000000e+00 0.000000e+00 0.000000e+00
0.000000e+00 0.000000e+00 0.000000e+00
0.000000e+00 0.000000e+00 0.000000e+00
0.000000e+00 0.000000e+00 0.000000e+00
0.000000e+00 0.000000e+00 0.000000e+00
0.000000e+00 0.000000e+00 0.000000e+00
0.000000e+00 0.000000e+00 0.000000e+00
0.000000e+00 0.000000e+00 0.000000e+00
0.000000e+00 0.000000e+00 0.000000e+00
0.000000e+00 0.000000e+00 0.000000e+00
0.000000e+00 0.000000e+00 0.000000e+00
0.000000e+00 0.000000e+00 0.000000e+00
0.000000e+00 0.000000e+00 0.000000e+00
0.000000e+00 0.000000e+00 0.000000e+00
0.000000e+00 0.000000e+00 0.000000e+00
0.000000e+00 0.000000e+00 0.000000e+00
0.000000e+00 0.000000e+00 0.000000e+00
0.000000e+00 0.000000e+00 0.000000e+00
0.000000e+00 0.000000e+00 0.000000e+00
0.000000e+00 0.000000e+00 0.000000e+00
0.000000e+00 0.000000e+00 0.000000e+00
0.000000e+00 0.000000e+00 0.000000e+00
0.000000e+00 0.000000e+00 0.000000e+00
0.000000e+00 0.000000e+00 0.000000e+00
0.000000e+00 0.000000e+00 0.000000e+00
0.000000e+00 0.000000e+00 0.000000e+00
0.000000e+00 0.000000e+00 0.000000e+00
0.000000e+00 0.000000e+00 0.000000e+00
0.000000e+00 0.000000e+00 0.000000e+00
0.000000e+00 0.000000e+00 0.000000e+00
0.000000e+00 0.000000e+00 0.000000e+00
0.000000e+00 0.000000e+00 0.000000e+00
0.000000e+00 0.000000e+00 0.000000e+00
0.000000e+00 0.000000e+00 0.000000e+00
0.000000e+00 0.000000e+00 0.000000e+00
0.000000e+00 0.000000e+00 0.000000e+00
0.000000e+00 0.000000e+00 0.000000e+00
0.000000e+00 0.000000e+00 0.000000e+00
0.000000e+00 0.000000e+00 0.000000e+00
0.000000e+00 0.000000e+00 0.000000e+00
0.000000e+00 0.000000e+00 0.000000e+00
0.000000e+00 0.000000e+00 0.000000e+00
0.000000e+00 0.000000e+00 0.000000e+00
0.000000e+00 0.000000e+00 0.000000e+00
0.000000e+00 0.000000e+00 0.000000e+00
0.000000e+00 0.000000e+00 0.000000e+00
0.000000e+00 0.000000e+00 0.000000e+00
0.000000e+00 0.000000e+00 0.000000e+00
0.000000e+00 0.000000e+00 0.000000e+00
0.000000e+00 0.000000e+00 0.000000e+00
0.000000e+00 0.000000e+00 0.000000e+00
0.000000e+00 0.000000e+00 0.000000e+00
0.000000e+00 0.000000e+00 0.000000e+00
0.000000e+00 0.000000e+00 0.000000e+00
0.000000e+00 0.000000e+00 0.000000e+00
0.000000e+00 0.000000e+00 0.000000e+00
0.000000e+00 0.000000e+00 0.000000e+00
0.000000e+00 0.000000e+00 0.000000e+00
0.000000e+00 0.000000e+00 0.000000e+00
0.000000e+00 0.000000e+00 0.000000e+00
0.000000e+00 0.000000e+00 0.000000e+00
0.000000e+00 0.000000e+00 0.000000e+00
0.000000e+00 0.000000e+00 0.000000e+00
0.000000e+00 0.000000e+00 0.000000e+00
0.000000e+00 0.000000e+00 0.000000e+00
0.000000e+00 0.000000e+00 0.000000e+00
0.000000e+00 0.000000e+00 0.000000e+00
0.000000e+00 0.000000e+00 0.000000e+00
0.000000e+00 0.000000e+00 0.000000e+00
0.000000e+00 0.000000e+00 0.000000e+00
0.000000e+00 0.000000e+00 0.000000e+00
0.000000e+00 0.000000e+00 0.000000e+00
0.000000e+00 0.000000e+00 0.000000e+00
0.000000e+00 0.000000e+00 0.000000e+00
0.000000e+00 0.000000e+00 0.000000e+00
0.000000e+00 0.000000e+00 0.000000e+00
0.000000e+00 0.000000e+00 0.000000e+00
0.000000e+00 0.000000e+00 0.000000e+00
0.000000e+00 0.000000e+00 0.000000e+00
0.000000e+00 0.000000e+00 0.000000e+00
0.000000e+00 0.000000e+00 0.000000e+00
0.000000e+00 0.000000e+00 0.000000e+00
0.000000e+00 0.000000e+00 0.000000e+00
0.000000e+00 0.000000e+00 0.000000e+00
0.000000e+00 0.000000e+00 0.000000e+00
0.000000e+00 0.000000e+00 0.000000e+00
0.000000e+00 0.000000e+00 0.000000e+00
0.000000e+00 0.000000e+00 0.000000e+00
0.000000e+00 0.000000e+00 0.000000e+00
0.000000e+00 0.000000e+00 0.000000e+00
0.000000e+00 0.000000e+00 0.000000e+00
0.000000e+00 0.000000e+00 0.000000e+00
0.000000e+00 0.000000e+00 0.000000e+00
0.000000e+00 0.000000e+00 0.000000e+00
0.000000e+00 0.000000e+00 0.000000e+00
0.000000e+00 0.000000e+00 0.000000e+00
0.000000e+00 0.000000e+00 0.000000e+00
0.000000e+00 0.000000e+00 0.000000e+00
0.000000e+00 0.000000e+00 0.000000e+00
0.000000e+00 0.000000e+00 0.000000e+00
0.000000e+00 0.000000e+00 0.000000e+00
0.000000e+00 0.000000e+00 0.000000e+00
0.000000e+00 0.000000e+00 0.000000e+00
0.000000e+00 0.000000e+00 0.000000e+00
0.000000e+00 0.000000e+00 0.000000e+00
0.000000e+00 0.000000e+00 0.000000e+00
0.000000e+00 0.000000e+00 0.000000e+00
0.000000e+00 0.000000e+00 0.000000e+00
0.000000e+00 0.000000e+00 0.000000e+00
0.000000e+00 0.000000e+00 0.000000e+00
0.000000e+00 0.000000e+00 0.000000e+00
0.000000e+00 0.000000e+00 0.000000e+00
0.000000e+00 0.000000e+00 0.000000e+00
0.000000e+00 0.000000e+00 0.000000e+00
0.000000e+00 0.000000e+00 0.000000e+00
0.000000e+00 0.000000e+00 0.000000e+00
0.000000e+00 0.000000e+00 0.000000e+00
0.000000e+00 0.000000e+00 0.000000e+00
0.000000e+00 0.000000e+00 0.000000e+00
0.000000e+00 0.000000e+00 0.000000e+00
0.000000e+00 0.000000e+00 0.000000e+00
0.000000e+00 0.000000e+00 0.000000e+00
0.000000e+00 0.000000e+00 0.000000e+00
0.000000e+00 0.000000e+00 0.000000e+00
0.000000e+00 0.000000e+00 0.000000e+00
0.000000e+00 0.000000e+00 0.000000e+00
0.000000e+00 0.000000e+00 0.000000e+00
0.000000e+00 0.000000e+00 0.000000e+00
0.000000e+00 0.000000e+00 0.000000e+00
0.000000e+00 0.000000e+00 0.000000e+00
0.000000e+00 0.000000e+00 0.000000e+00
0.000000e+00 0.000000e+00 0.000000e+00
0.000000e+00 0.000000e+00 0.000000e+00
0.000000e+00 0.000000e+00 0.000000e+00
0.000000e+00 0.000000e+00 0.000000e+00
0.000000e+00 0.000000e+00 0.000000e+00
0.000000e+00 0.000000e+00 0.000000e+00
0.000000e+00 0.000000e+00 0.000000e+00
0.000000e+00 0.000000e+00 0.000000e+00
0.000000e+00 0.000000e+00 0.000000e+00
0.000000e+00 0.000000e+00 0.000000e+00
0.000000e+00 0.000000e+00 0.000000e+00
0.000000e+00 0.000000e+00 0.000000e+00
0.000000e+00 0.000000e+00 0.000000e+00
0.000000e+00 0.000000e+00 0.000000e+00
0.000000e+00 0.000000e+00 0.000000e+00
0.000000e+00 0.000000e+00 0.000000e+00
0.000000e+00 0.000000e+00 0.000000e+00
0.000000e+00 0.000000e+00 0.000000e+00
0.000000e+00 0.000000e+00 0.000000e+00
0.000000e+00 0.000000e+00 0.000000e+00
0.000000e+00 0.000000e+00 0.000000e+00
0.000000e+00 0.000000e+00 0.000000e+00
0.000000e+00 0.000000e+00 0.000000e+00
0.000000e+00 0.000000e+00 0.000000e+00
0.000000e+00 0.000000e+00 0.000000e+00
0.000000e+00 0.000000e+00 0.000000e+00
0.000000e+00 0.000000e+00 0.000000e+00
0.000000e+00 0.000000e+00 0.000000e+00
0.000000e+00 0.000000e+00 0.000000e+00
0.000000e+00 0.000000e+00 0.000000e+00
0.000000e+00 0.000000e+00 0.000000e+00
0.000000e+00 0.000000e+00 0.000000e+00
0.000000e+00 0.000000e+00 0.000000e+00
0.000000e+00 0.000000e+00 0.000000e+00
0.000000e+00 0.000000e+00 0.000000e+00
0.000000e+00 0.000000e+00 0.000000e+00
0.000000e+00 0.000000e+00 0.000000e+00
0.000000e+00 0.000000e+00 0.000000e+00
0.000000e+00 0.000000e+00 0.000000e+00
0.000000e+00 0.000000e+00 0.000000e+00
0.000000e+00 0.000000e+00 0.000000e+00
0.000000e+00 0.000000e+00 0.000000e+00
0.000000e+00 0.000000e+00 0.000000e+00
0.000000e+00 0.000000e+00 0.000000e+00
0.000000e+00 0.000000e+00 0.000000e+00
0.000000e+00 0.000000e+00 0.000000e+00
0.000000e+00 0.000000e+00 0.000000e+00
0.000000e+00 0.000000e+00 0.000000e+00
0.000000e+00 0.000000e+00 0.000000e+00
0.000000e+00 0.000000e+00 0.000000e+00
0.000000e+00 0.000000e+00 0.000000e+00
0.000000e+00 0.000000e+00 0.000000e+00
0.000000e+00 0.000000e+00 0.000000e+00
0.000000e+00 0.000000e+00 0.000000e+00
0.000000e+00 0.000000e+00 0.000000e+00
0.000000e+00 0.000000e+00 0.000000e+00
0.000000e+00 0.000000e+00 0.000000e+00
0.000000e+00 0.000000e+00 0.000000e+00
0.000000e+00 0.000000e+00 0.000000e+00
0.000000e+00 0.000000e+00 0.000000e+00
0.000000e+00 0.000000e+00 0.000000e+00
0.000000e+00 0.000000e+00 0.000000e+00
0.000000e+00 0.000000e+00 0.000000e+00
0.000000e+00 0.000000e+00 0.000000e+00
0.000000e+00 0.000000e+00 0.000000e+00
0.000000e+00 0.000000e+00 0.000000e+00
0.000000e+00 0.000000e+00 0.000000e+00
0.000000e+00 0.000000e+00 0.000000e+00
0.000000e+00 0.000000e+00 0.000000e+00
0.000000e+00 0.000000e+00 0.000000e+00
0.000000e+00 0.000000e+00 0.000000e+00
0.000000e+00 0.000000e+00 0.000000e+00
0.000000e+00 0.000000e+00 0.000000e+00
0.000000e+00 0.000000e+00 0.000000e+00
0.000000e+00 0.000000e+00 0.000000e+00
0.000000e+00 0.000000e+00 0.000000e+00
0.000000e+00 0.000000e+00 0.000000e+00
0.000000e+00 0.000000e+00 0.000000e+00
0.000000e+00 0.000000e+00 0.000000e+00
0.000000e+00 0.000000e+00 0.000000e+00
0.000000e+00 0.000000e+00 0.000000e+00
0.000000e+00 0.000000e+00 0.000000e+00
0.000000e+00 0.000000e+00 0.000000e+00
0.000000e+00 0.000000e+00 0.000000e+00
0.000000e+00 0.000000e+00 0.000000e+00
0.000000e+00 0.000000e+00 0.000000e+00
0.000000e+00 0.000000e+00 0.000000e+00
0.000000e+00 0.000000e+00 0.000000e+00
0.000000e+00 0.000000e+00 0.000000e+00
0.000000e+00 0.000000e+00 0.000000e+00
0.000000e+00 0.000000e+00 0.000000e+00
0.000000e+00 0.000000e+00 0.000000e+00
0.000000e+00 0.000000e+00 0.000000e+00
0.000000e+00 0.000000e+00 0.000000e+00
0.000000e+00 0.000000e+00 0.000000e+00
0.000000e+00 0.000000e+00 0.000000e+00
0.000000e+00 0.000000e+00 0.000000e+00
0.000000e+00 0.000000e+00 0.000000e+00
0.000000e+00 0.000000e+00 0.000000e+00
0.000000e+00 0.000000e+00 0.000000e+00
0.000000e+00 0.000000e+00 0.000000e+00
0.000000e+00 0.000000e+00 0.000000e+00
0.000000e+00 0.000000e+00 0.000000e+00
0.000000e+00 0.000000e+00 0.000000e+00
0.000000e+00 0.000000e+00 0.000000e+00
0.000000e+00 0.000000e+00 0.000000e+00
0.000000e+00 0.000000e+00 0.000000e+00
0.000000e+00 0.000000e+00 0.000000e+00
0.000000e+00 0.000000e+00 0.000000e+00
0.000000e+00 0.000000e+00 0.000000e+00
0.000000e+00 0.000000e+00 0.000000e+00
0.000000e+00 0.000000e+00 0.000000e+00
0.000000e+00 0.000000e+00 0.000000e+00
0.000000e+00 0.000000e+00 0.000000e+00
0.000000e+00 0.000000e+00 0.000000e+00
0.000000e+00 0.000000e+00 0.000000e+00
0.000000e+00 0.000000e+00 0.000000e+00
0.000000e+00 0.000000e+00 0.000000e+00
0.000000e+00 0.000000e+00 0.000000e+00
0.000000e+00 0.000000e+00 0.000000e+00
0.000000e+00 0.000000e+00 0.000000e+00
0.000000e+00 0.000000e+00 0.000000e+00
0.000000e+00 0.000000e+00 0.000000e+00
0.000000e+00 0.000000e+00 0.000000e+00
0.000000e+00 0.000000e+00 0.000000e+00
0.000000e+00 0.000000e+00 0.000000e+00
0.000000e+00 0.000000e+00 0.000000e+00
0.000000e+00 0.000000e+00 0.000000e+00
0.000000e+00 0.000000e+00 0.000000e+00
0.000000e+00 0.000000e+00 0.000000e+00
0.000000e+00 0.000000e+00 0.000000e+00
0.000000e+00 0.000000e+00 0.000000e+00
0.000000e+00 0.000000e+00 0.000000e+00
0.000000e+00 0.000000e+00 0.000000e+00
0.000000e+00 0.000000e+00 0.000000e+00
0.000000e+00 0.000000e+00 0.000000e+00
0.000000e+00 0.000000e+00 0.000000e+00
0.000000e+00 0.000000e+00 0.000000e+00
0.000000e+00 0.000000e+00 0.000000e+00
0.000000e+00 0.000000e+00 0.000000e+00
0.000000e+00 0.000000e+00 0.000000e+00
0.000000e+00 0.000000e+00 0.000000e+00
0.000000e+00 0.000000e+00 0.000000e+00
0.000000e+00 0.000000e+00 0.000000e+00
0.000000e+00 0.000000e+00 0.000000e+00
0.000000e+00 0.000000e+00 0.000000e+00
0.000000e+00 0.000000e+00 0.000000e+00
0.000000e+00 0.000000e+00 0.000000e+00
0.000000e+00 0.000000e+00 0.000000e+00
0.000000e+00 0.000000e+00 0.000000e+00
0.000000e+00 0.000000e+00 0.000000e+00
0.000000e+00 0.000000e+00 0.000000e+00
0.000000e+00 0.000000e+00 0.000000e+00
0.000000e+00 0.000000e+00 0.000000e+00
0.000000e+00 0.000000e+00 0.000000e+00
0.000000e+00 0.000000e+00 0.000000e+00
0.000000e+00 0.000000e+00 0.000000e+00
0.000000e+00 0.000000e+00 0.000000e+00
0.000000e+00 0.000000e+00 0.000000e+00
0.000000e+00 0.000000e+00 0.000000e+00
0.000000e+00 0.000000e+00 0.000000e+00
0.000000e+00 0.000000e+00 0.000000e+00
0.000000e+00 0.000000e+00 0.000000e+00
0.000000e+00 0.000000e+00 0.000000e+00
0.000000e+00 0.000000e+00 0.000000e+00
0.000000e+00 0.000000e+00 0.000000e+00
0.000000e+00 0.000000e+00 0.000000e+00
0.000000e+00 0.000000e+00 0.000000e+00
0.000000e+00 0.000000e+00 0.000000e+00
0.000000e+00 0.000000e+00 0.000000e+00
0.000000e+00 0.000000e+00 0.000000e+00
0.000000e+00 0.000000e+00 0.000000e+00
0.000000e+00 0.000000e+00 0.000000e+00
0.000000e+00 0.000000e+00 0.000000e+00
0.000000e+00 0.000000e+00 0.000000e+00
0.000000e+00 0.000000e+00 0.000000e+00
0.000000e+00 0.000000e+00 0.000000e+00
0.000000e+00 0.000000e+00 0.000000e+00
0.000000e+00 0.000000e+00 0.000000e+00
0.000000e+00 0.000000e+00 0.000000e+00
0.000000e+00 0.000000e+00 0.000000e+00
0.000000e+00 0.000000e+00 0.000000e+00
0.000000e+00 0.000000e+00 0.000000e+00
0.000000e+00 0.000000e+00 0.000000e+00
0.000000e+00 0.000000e+00 0.000000e+00
0.000000e+00 0.000000e+00 0.000000e+00
0.000000e+00 0.000000e+00 0.000000e+00
0.000000e+00 0.000000e+00 0.000000e+00
0.000000e+00 0.000000e+00 0.000000e+00
0.000000e+00 0.000000e+00 0.000000e+00
0.000000e+00 0.000000e+00 0.000000e+00
0.000000e+00 0.000000e+00 0.000000e+00
0.000000e+00 0.000000e+00 0.000000e+00
0.000000e+00 0.000000e+00 0.000000e+00
0.000000e+00 0.000000e+00 0.000000e+00
0.000000e+00 0.000000e+00 0.000000e+00
0.000000e+00 0.000000e+00 0.000000e+00
0.000000e+00 0.000000e+00 0.000000e+00
0.000000e+00 0.000000e+00 0.000000e+00
0.000000e+00 0.000000e+00 0.000000e+00
0.000000e+00 0.000000e+00 0.000000e+00
0.000000e+00 0.000000e+00 0.000000e+00
0.000000e+00 0.000000e+00 0.000000e+00
0.000000e+00 0.000000e+00 0.000000e+00
0.000000e+00 0.000000e+00 0.000000e+00
0.000000e+00 0.000000e+00 0.000000e+00
0.000000e+00 0.000000e+00 0.000000e+00
0.000000e+00 0.000000e+00 0.000000e+00
0.000000e+00 0.000000e+00 0.000000e+00
0.000000e+00 0.000000e+00 0.000000e+00
0.000000e+00 0.000000e+00 0.000000e+00
0.000000e+00 0.000000e+00 0.000000e+00
0.000000e+00 0.000000e+00 0.000000e+00
0.000000e+00 0.000000e+00 0.000000e+00
0.000000e+00 0.000000e+00 0.000000e+00
0.000000e+00 0.000000e+00 0.000000e+00
0.000000e+00 0.000000e+00 0.000000e+00
0.000000e+00 0.000000e+00 0.000000e+00
0.000000e+00 0.000000e+00 0.000000e+00
0.000000e+00 0.000000e+00 0.000000e+00
0.000000e+00 0.000000e+00 0.000000e+00
0.000000e+00 0.000000e+00 0.000000e+00
0.000000e+00 0.000000e+00 0.000000e+00
0.000000e+00 0.000000e+00 0.000000e+00
0.000000e+00 0.000000e+00 0.000000e+00
0.000000e+00 0.000000e+00 0.000000e+00
0.000000e+00 0.000000e+00 0.000000e+00
0.000000e+00 0.000000e+00 0.000000e+00
0.000000e+00 0.000000e+00 0.000000e+00
0.000000e+00 0.000000e+00 0.000000e+00
0.000000e+00 0.000000e+00 0.000000e+00
0.000000e+00 0.000000e+00 0.000000e+00
0.000000e+00 0.000000e+00 0.000000e+00
0.000000e+00 0.000000e+00 0.000000e+00
0.000000e+00 0.000000e+00 0.000000e+00
0.000000e+00 0.000000e+00 0.000000e+00
0.000000e+00 0.000000e+00 0.000000e+00
0.000000e+00 0.000000e+00 0.000000e+00
0.000000e+00 0.000000e+00 0.000000e+00
0.000000e+00 0.000000e+00 0.000000e+00
0.000000e+00 0.000000e+00 0.000000e+00
0.000000e+00 0.000000e+00 0.000000e+00
0.000000e+00 0.000000e+00 0.000000e+00
0.000000e+00 0.000000e+00 0.000000e+00
0.000000e+00 0.000000e+00 0.000000e+00
0.000000e+00 0.000000e+00 0.000000e+00
0.000000e+00 0.000000e+00 0.000000e+00
0.000000e+00 0.000000e+00 0.000000e+00
0.000000e+00 0.000000e+00 0.000000e+00
0.000000e+00 0.000000e+00 0.000000e+00
0.000000e+00 0.000000e+00 0.000000e+00
0.000000e+00 0.000000e+00 0.000000e+00
0.000000e+00 0.000000e+00 0.000000e+00
0.000000e+00 0.000000e+00 0.000000e+00
0.000000e+00 0.000000e+00 0.000000e+00
0.000000e+00 0.000000e+00 0.000000e+00
0.000000e+00 0.000000e+00 0.000000e+00
0.000000e+00 0.000000e+00 0.000000e+00
1.267217e-02 1.221023e-02 -2.502823e-02
1.842786e-02 2.963206e-02 -2.408685e-02
1.940443e-02 4.871798e-02 -3.313913e-02
2.049277e-02 6.449445e-02 -2.138924e-02
1.969560e-02 7.946191e-02 -3.246710e-02
2.115667e-02 9.168826e-02 -1.790870e-02
2.092499e-02 1.022291e-01 -3.201662e-02
2.353370e-02 1.088971e-01 -1.546824e-02
2.414519e-02 1.126841e-01 -3.199033e-02
2.762109e-02 1.114096e-01 -1.391107e-02
2.857701e-02 1.066270e-01 -3.227224e-02
3.219523e-02 9.670784e-02 -1.299015e-02
3.282717e-02 8.371595e-02 -3.283211e-02
3.576280e-02 6.710317e-02 -1.278404e-02
3.509329e-02 4.905316e-02 -3.332631e-02
3.629652e-02 3.055627e-02 -1.268506e-02
3.378137e-02 1.342452e-02 -3.397882e-02
3.097156e-02 5.323488e-04 -1.129746e-02
2.025997e-02 -7.823904e-03 -2.746635e-02
0.000000e+00 0.000000e+00 0.000000e+00
0.000000e+00 0.000000e+00 0.000000e+00
3.944914e-02 1.634140e-02 -2.773376e-02
5.232332e-02 4.013223e-02 -2.002057e-02
5.560929e-02 6.923983e-02 -3.737438e-02
5.424572e-02 9.461306e-02 -9.427408e-03
5.355468e-02 1.194987e-01 -3.341030e-02
5.306461e-02 1.402032e-01 3.358793e-04
5.556767e-02 1.581172e-01 -2.985350e-02
5.872463e-02 1.699910e-01 7.797965e-03
6.476955e-02 1.769010e-01 -2.724253e-02
7.059314e-02 1.760442e-01 1.347370e-02
7.832449e-02 1.691826e-01 -2.550945e-02
8.448924e-02 1.546085e-01 1.764573e-02
9.128781e-02 1.348185e-01 -2.463545e-02
9.496821e-02 1.096469e-01 2.008099e-02
9.772902e-02 8.205198e-02 -2.396007e-02
9.558002e-02 5.432048e-02 2.166624e-02
9.022317e-02 2.847220e-02 -2.322552e-02
7.561014e-02 8.402786e-03 2.256568e-02
4.981009e-02 -7.127088e-03 -1.198698e-02
0.000000e+00 0.000000e+00 0.000000e+00
0.000000e+00 0.000000e+00 0.000000e+00
6.997536e-02 1.463587e-02 -3.786247e-02
9.210301e-02 4.128192e-02 -4.053390e-02
9.685481e-02 7.474647e-02 -5.377209e-02
9.536786e-02 1.079886e-01 -4.091229e-02
9.336817e-02 1.409274e-01 -5.426785e-02