# vtk DataFile Version 3.0
# Velocity/pressure data
ASCII
DATASET STRUCTURED_GRID
DIMENSIONS 21 21 21 POINTS 9261 DOUBLE
0.000000e+00 0.000000e+00 0.000000e+00
0.000000e+00 5.000000e-02 0.000000e+00
0.000000e+00 1.000000e-01 0.000000e+00
0.000000e+00 1.500000e-01 0.000000e+00
0.000000e+00 2.000000e-01 0.000000e+00
0.000000e+00 2.500000e-01 0.000000e+00
0.000000e+00 3.000000e-01 0.000000e+00
0.000000e+00 3.500000e-01 0.000000e+00
0.000000e+00 4.000000e-01 0.000000e+00
0.000000e+00 4.500000e-01 0.000000e+00
0.000000e+00 5.000000e-01 0.000000e+00
0.000000e+00 5.500000e-01 0.000000e+00
0.000000e+00 6.000000e-01 0.000000e+00
0.000000e+00 6.500000e-01 0.000000e+00
0.000000e+00 7.000000e-01 0.000000e+00
0.000000e+00 7.500000e-01 0.000000e+00
0.000000e+00 8.000000e-01 0.000000e+00
0.000000e+00 8.500000e-01 0.000000e+00
0.000000e+00 9.000000e-01 0.000000e+00
0.000000e+00 9.500000e-01 0.000000e+00
0.000000e+00 1.000000e+00 0.000000e+00
5.000000e-02 0.000000e+00 0.000000e+00
5.000000e-02 5.000000e-02 0.000000e+00
5.000000e-02 1.000000e-01 0.000000e+00
5.000000e-02 1.500000e-01 0.000000e+00
5.000000e-02 2.000000e-01 0.000000e+00
5.000000e-02 2.500000e-01 0.000000e+00
5.000000e-02 3.000000e-01 0.000000e+00
5.000000e-02 3.500000e-01 0.000000e+00
5.000000e-02 4.000000e-01 0.000000e+00
5.000000e-02 4.500000e-01 0.000000e+00
5.000000e-02 5.000000e-01 0.000000e+00
5.000000e-02 5.500000e-01 0.000000e+00
5.000000e-02 6.000000e-01 0.000000e+00
5.000000e-02 6.500000e-01 0.000000e+00
5.000000e-02 7.000000e-01 0.000000e+00
5.000000e-02 7.500000e-01 0.000000e+00
5.000000e-02 8.000000e-01 0.000000e+00
5.000000e-02 8.500000e-01 0.000000e+00
5.000000e-02 9.000000e-01 0.000000e+00
5.000000e-02 9.500000e-01 0.000000e+00
5.000000e-02 1.000000e+00 0.000000e+00
1.000000e-01 0.000000e+00 0.000000e+00
1.000000e-01 5.000000e-02 0.000000e+00
1.000000e-01 1.000000e-01 0.000000e+00
1.000000e-01 1.500000e-01 0.000000e+00
1.000000e-01 2.000000e-01 0.000000e+00
1.000000e-01 2.500000e-01 0.000000e+00
1.000000e-01 3.000000e-01 0.000000e+00
1.000000e-01 3.500000e-01 0.000000e+00
1.000000e-01 4.000000e-01 0.000000e+00
1.000000e-01 4.500000e-01 0.000000e+00
1.000000e-01 5.000000e-01 0.000000e+00
1.000000e-01 5.500000e-01 0.000000e+00
1.000000e-01 6.000000e-01 0.000000e+00
1.000000e-01 6.500000e-01 0.000000e+00
1.000000e-01 7.000000e-01 0.000000e+00
1.000000e-01 7.500000e-01 0.000000e+00
1.000000e-01 8.000000e-01 0.000000e+00
1.000000e-01 8.500000e-01 0.000000e+00
1.000000e-01 9.000000e-01 0.000000e+00
1.000000e-01 9.500000e-01 0.000000e+00
1.000000e-01 1.000000e+00 0.000000e+00
1.500000e-01 0.000000e+00 0.000000e+00
1.500000e-01 5.000000e-02 0.000000e+00
1.500000e-01 1.000000e-01 0.000000e+00
1.500000e-01 1.500000e-01 0.000000e+00
1.500000e-01 2.000000e-01 0.000000e+00
1.500000e-01 2.500000e-01 0.000000e+00
1.500000e-01 3.000000e-01 0.000000e+00
1.500000e-01 3.500000e-01 0.000000e+00
1.500000e-01 4.000000e-01 0.000000e+00
1.500000e-01 4.500000e-01 0.000000e+00
1.500000e-01 5.000000e-01 0.000000e+00
1.500000e-01 5.500000e-01 0.000000e+00
1.500000e-01 6.000000e-01 0.000000e+00
1.500000e-01 6.500000e-01 0.000000e+00
1.500000e-01 7.000000e-01 0.000000e+00
1.500000e-01 7.500000e-01 0.000000e+00
1.500000e-01 8.000000e-01 0.000000e+00
1.500000e-01 8.500000e-01 0.000000e+00
1.500000e-01 9.000000e-01 0.000000e+00
1.500000e-01 9.500000e-01 0.000000e+00
1.500000e-01 1.000000e+00 0.000000e+00
2.000000e-01 0.000000e+00 0.000000e+00
2.000000e-01 5.000000e-02 0.000000e+00
2.000000e-01 1.000000e-01 0.000000e+00
2.000000e-01 1.500000e-01 0.000000e+00
2.000000e-01 2.000000e-01 0.000000e+00
2.000000e-01 2.500000e-01 0.000000e+00
2.000000e-01 3.000000e-01 0.000000e+00
2.000000e-01 3.500000e-01 0.000000e+00
2.000000e-01 4.000000e-01 0.000000e+00
2.000000e-01 4.500000e-01 0.000000e+00
2.000000e-01 5.000000e-01 0.000000e+00
2.000000e-01 5.500000e-01 0.000000e+00
2.000000e-01 6.000000e-01 0.000000e+00
2.000000e-01 6.500000e-01 0.000000e+00
2.000000e-01 7.000000e-01 0.000000e+00
2.000000e-01 7.500000e-01 0.000000e+00
2.000000e-01 8.000000e-01 0.000000e+00
2.000000e-01 8.500000e-01 0.000000e+00
2.000000e-01 9.000000e-01 0.000000e+00
2.000000e-01 9.500000e-01 0.000000e+00
2.000000e-01 1.000000e+00 0.000000e+00
2.500000e-01 0.000000e+00 0.000000e+00
2.500000e-01 5.000000e-02 0.000000e+00
2.500000e-01 1.000000e-01 0.000000e+00
2.500000e-01 1.500000e-01 0.000000e+00
2.500000e-01 2.000000e-01 0.000000e+00
2.500000e-01 2.500000e-01 0.000000e+00
2.500000e-01 3.000000e-01 0.000000e+00
2.500000e-01 3.500000e-01 0.000000e+00
2.500000e-01 4.000000e-01 0.000000e+00
2.500000e-01 4.500000e-01 0.000000e+00
2.500000e-01 5.000000e-01 0.000000e+00
2.500000e-01 5.500000e-01 0.000000e+00
2.500000e-01 6.000000e-01 0.000000e+00
2.500000e-01 6.500000e-01 0.000000e+00
2.500000e-01 7.000000e-01 0.000000e+00
2.500000e-01 7.500000e-01 0.000000e+00
2.500000e-01 8.000000e-01 0.000000e+00
2.500000e-01 8.500000e-01 0.000000e+00
2.500000e-01 9.000000e-01 0.000000e+00
2.500000e-01 9.500000e-01 0.000000e+00
2.500000e-01 1.000000e+00 0.000000e+00
3.000000e-01 0.000000e+00 0.000000e+00
3.000000e-01 5.000000e-02 0.000000e+00
3.000000e-01 1.000000e-01 0.000000e+00
3.000000e-01 1.500000e-01 0.000000e+00
3.000000e-01 2.000000e-01 0.000000e+00
3.000000e-01 2.500000e-01 0.000000e+00
3.000000e-01 3.000000e-01 0.000000e+00
3.000000e-01 3.500000e-01 0.000000e+00
3.000000e-01 4.000000e-01 0.000000e+00
3.000000e-01 4.500000e-01 0.000000e+00
3.000000e-01 5.000000e-01 0.000000e+00
3.000000e-01 5.500000e-01 0.000000e+00
3.000000e-01 6.000000e-01 0.000000e+00
3.000000e-01 6.500000e-01 0.000000e+00
3.000000e-01 7.000000e-01 0.000000e+00
3.000000e-01 7.500000e-01 0.000000e+00
3.000000e-01 8.000000e-01 0.000000e+00
3.000000e-01 8.500000e-01 0.000000e+00
3.000000e-01 9.000000e-01 0.000000e+00
3.000000e-01 9.500000e-01 0.000000e+00
3.000000e-01 1.000000e+00 0.000000e+00
3.500000e-01 0.000000e+00 0.000000e+00
3.500000e-01 5.000000e-02 0.000000e+00
3.500000e-01 1.000000e-01 0.000000e+00
3.500000e-01 1.500000e-01 0.000000e+00
3.500000e-01 2.000000e-01 0.000000e+00
3.500000e-01 2.500000e-01 0.000000e+00
3.500000e-01 3.000000e-01 0.000000e+00
3.500000e-01 3.500000e-01 0.000000e+00
3.500000e-01 4.000000e-01 0.000000e+00
3.500000e-01 4.500000e-01 0.000000e+00
3.500000e-01 5.000000e-01 0.000000e+00
3.500000e-01 5.500000e-01 0.000000e+00
3.500000e-01 6.000000e-01 0.000000e+00
3.500000e-01 6.500000e-01 0.000000e+00
3.500000e-01 7.000000e-01 0.000000e+00
3.500000e-01 7.500000e-01 0.000000e+00
3.500000e-01 8.000000e-01 0.000000e+00
3.500000e-01 8.500000e-01 0.000000e+00
3.500000e-01 9.000000e-01 0.000000e+00
3.500000e-01 9.500000e-01 0.000000e+00
3.500000e-01 1.000000e+00 0.000000e+00
4.000000e-01 0.000000e+00 0.000000e+00
4.000000e-01 5.000000e-02 0.000000e+00
4.000000e-01 1.000000e-01 0.000000e+00
4.000000e-01 1.500000e-01 0.000000e+00
4.000000e-01 2.000000e-01 0.000000e+00
4.000000e-01 2.500000e-01 0.000000e+00
4.000000e-01 3.000000e-01 0.000000e+00
4.000000e-01 3.500000e-01 0.000000e+00
4.000000e-01 4.000000e-01 0.000000e+00
4.000000e-01 4.500000e-01 0.000000e+00
4.000000e-01 5.000000e-01 0.000000e+00
4.000000e-01 5.500000e-01 0.000000e+00
4.000000e-01 6.000000e-01 0.000000e+00
4.000000e-01 6.500000e-01 0.000000e+00
4.000000e-01 7.000000e-01 0.000000e+00
4.000000e-01 7.500000e-01 0.000000e+00
4.000000e-01 8.000000e-01 0.000000e+00
4.000000e-01 8.500000e-01 0.000000e+00
4.000000e-01 9.000000e-01 0.000000e+00
4.000000e-01 9.500000e-01 0.000000e+00
4.000000e-01 1.000000e+00 0.000000e+00
4.500000e-01 0.000000e+00 0.000000e+00
4.500000e-01 5.000000e-02 0.000000e+00
4.500000e-01 1.000000e-01 0.000000e+00
4.500000e-01 1.500000e-01 0.000000e+00
4.500000e-01 2.000000e-01 0.000000e+00
4.500000e-01 2.500000e-01 0.000000e+00
4.500000e-01 3.000000e-01 0.000000e+00
4.500000e-01 3.500000e-01 0.000000e+00
4.500000e-01 4.000000e-01 0.000000e+00
4.500000e-01 4.500000e-01 0.000000e+00
4.500000e-01 5.000000e-01 0.000000e+00
4.500000e-01 5.500000e-01 0.000000e+00
4.500000e-01 6.000000e-01 0.000000e+00
4.500000e-01 6.500000e-01 0.000000e+00
4.500000e-01 7.000000e-01 0.000000e+00
4.500000e-01 7.500000e-01 0.000000e+00
4.500000e-01 8.000000e-01 0.000000e+00
4.500000e-01 8.500000e-01 0.000000e+00
4.500000e-01 9.000000e-01 0.000000e+00
4.500000e-01 9.500000e-01 0.000000e+00
4.500000e-01 1.000000e+00 0.000000e+00
5.000000e-01 0.000000e+00 0.000000e+00
5.000000e-01 5.000000e-02 0.000000e+00
5.000000e-01 1.000000e-01 0.000000e+00
5.000000e-01 1.500000e-01 0.000000e+00
5.000000e-01 2.000000e-01 0.000000e+00
5.000000e-01 2.500000e-01 0.000000e+00
5.000000e-01 3.000000e-01 0.000000e+00
5.000000e-01 3.500000e-01 0.000000e+00
5.000000e-01 4.000000e-01 0.000000e+00
5.000000e-01 4.500000e-01 0.000000e+00
5.000000e-01 5.000000e-01 0.000000e+00
5.000000e-01 5.500000e-01 0.000000e+00
5.000000e-01 6.000000e-01 0.000000e+00
5.000000e-01 6.500000e-01 0.000000e+00
5.000000e-01 7.000000e-01 0.000000e+00
5.000000e-01 7.500000e-01 0.000000e+00
5.000000e-01 8.000000e-01 0.000000e+00
5.000000e-01 8.500000e-01 0.000000e+00
5.000000e-01 9.000000e-01 0.000000e+00
5.000000e-01 9.500000e-01 0.000000e+00
5.000000e-01 1.000000e+00 0.000000e+00
5.500000e-01 0.000000e+00 0.000000e+00
5.500000e-01 5.000000e-02 0.000000e+00
5.500000e-01 1.000000e-01 0.000000e+00
5.500000e-01 1.500000e-01 0.000000e+00
5.500000e-01 2.000000e-01 0.000000e+00
5.500000e-01 2.500000e-01 0.000000e+00
5.500000e-01 3.000000e-01 0.000000e+00
5.500000e-01 3.500000e-01 0.000000e+00
5.500000e-01 4.000000e-01 0.000000e+00
5.500000e-01 4.500000e-01 0.000000e+00
5.500000e-01 5.000000e-01 0.000000e+00
5.500000e-01 5.500000e-01 0.000000e+00
5.500000e-01 6.000000e-01 0.000000e+00
5.500000e-01 6.500000e-01 0.000000e+00
5.500000e-01 7.000000e-01 0.000000e+00
5.500000e-01 7.500000e-01 0.000000e+00
5.500000e-01 8.000000e-01 0.000000e+00
5.500000e-01 8.500000e-01 0.000000e+00
5.500000e-01 9.000000e-01 0.000000e+00
5.500000e-01 9.500000e-01 0.000000e+00
5.500000e-01 1.000000e+00 0.000000e+00
6.000000e-01 0.000000e+00 0.000000e+00
[...]
POINT_DATA 9261
VECTORS velocity_vectors DOUBLE
0.000000e+00 0.000000e+00 0.000000e+00
0.000000e+00 0.000000e+00 0.000000e+00
0.000000e+00 0.000000e+00 0.000000e+00
0.000000e+00 0.000000e+00 0.000000e+00
0.000000e+00 0.000000e+00 0.000000e+00
0.000000e+00 0.000000e+00 0.000000e+00
0.000000e+00 0.000000e+00 0.000000e+00
0.000000e+00 0.000000e+00 0.000000e+00
0.000000e+00 0.000000e+00 0.000000e+00
0.000000e+00 0.000000e+00 0.000000e+00
0.000000e+00 0.000000e+00 0.000000e+00
0.000000e+00 0.000000e+00 0.000000e+00
0.000000e+00 0.000000e+00 0.000000e+00
0.000000e+00 0.000000e+00 0.000000e+00
0.000000e+00 0.000000e+00 0.000000e+00
0.000000e+00 0.000000e+00 0.000000e+00
0.000000e+00 0.000000e+00 0.000000e+00
0.000000e+00 0.000000e+00 0.000000e+00
0.000000e+00 0.000000e+00 0.000000e+00
0.000000e+00 0.000000e+00 0.000000e+00
0.000000e+00 0.000000e+00 0.000000e+00
0.000000e+00 0.000000e+00 0.000000e+00
0.000000e+00 0.000000e+00 0.000000e+00
0.000000e+00 0.000000e+00 0.000000e+00
0.000000e+00 0.000000e+00 0.000000e+00
0.000000e+00 0.000000e+00 0.000000e+00
0.000000e+00 0.000000e+00 0.000000e+00
0.000000e+00 0.000000e+00 0.000000e+00
0.000000e+00 0.000000e+00 0.000000e+00
0.000000e+00 0.000000e+00 0.000000e+00
0.000000e+00 0.000000e+00 0.000000e+00
0.000000e+00 0.000000e+00 0.000000e+00
0.000000e+00 0.000000e+00 0.000000e+00
0.000000e+00 0.000000e+00 0.000000e+00
0.000000e+00 0.000000e+00 0.000000e+00
0.000000e+00 0.000000e+00 0.000000e+00
0.000000e+00 0.000000e+00 0.000000e+00
0.000000e+00 0.000000e+00 0.000000e+00
0.000000e+00 0.000000e+00 0.000000e+00
0.000000e+00 0.000000e+00 0.000000e+00
0.000000e+00 0.000000e+00 0.000000e+00
0.000000e+00 0.000000e+00 0.000000e+00
0.000000e+00 0.000000e+00 0.000000e+00
0.000000e+00 0.000000e+00 0.000000e+00
0.000000e+00 0.000000e+00 0.000000e+00
0.000000e+00 0.000000e+00 0.000000e+00
0.000000e+00 0.000000e+00 0.000000e+00
0.000000e+00 0.000000e+00 0.000000e+00
0.000000e+00 0.000000e+00 0.000000e+00
0.000000e+00 0.000000e+00 0.000000e+00
0.000000e+00 0.000000e+00 0.000000e+00
0.000000e+00 0.000000e+00 0.000000e+00
0.000000e+00 0.000000e+00 0.000000e+00
0.000000e+00 0.000000e+00 0.000000e+00
0.000000e+00 0.000000e+00 0.000000e+00
0.000000e+00 0.000000e+00 0.000000e+00
0.000000e+00 0.000000e+00 0.000000e+00
0.000000e+00 0.000000e+00 0.000000e+00
0.000000e+00 0.000000e+00 0.000000e+00
0.000000e+00 0.000000e+00 0.000000e+00
0.000000e+00 0.000000e+00 0.000000e+00
0.000000e+00 0.000000e+00 0.000000e+00
0.000000e+00 0.000000e+00 0.000000e+00
0.000000e+00 0.000000e+00 0.000000e+00
0.000000e+00 0.000000e+00 0.000000e+00
0.000000e+00 0.000000e+00 0.000000e+00
0.000000e+00 0.000000e+00 0.000000e+00
0.000000e+00 0.000000e+00 0.000000e+00
0.000000e+00 0.000000e+00 0.000000e+00
0.000000e+00 0.000000e+00 0.000000e+00
0.000000e+00 0.000000e+00 0.000000e+00
0.000000e+00 0.000000e+00 0.000000e+00
0.000000e+00 0.000000e+00 0.000000e+00
0.000000e+00 0.000000e+00 0.000000e+00
0.000000e+00 0.000000e+00 0.000000e+00
0.000000e+00 0.000000e+00 0.000000e+00
0.000000e+00 0.000000e+00 0.000000e+00
0.000000e+00 0.000000e+00 0.000000e+00
0.000000e+00 0.000000e+00 0.000000e+00
0.000000e+00 0.000000e+00 0.000000e+00
0.000000e+00 0.000000e+00 0.000000e+00
0.000000e+00 0.000000e+00 0.000000e+00
0.000000e+00 0.000000e+00 0.000000e+00
0.000000e+00 0.000000e+00 0.000000e+00
0.000000e+00 0.000000e+00 0.000000e+00
0.000000e+00 0.000000e+00 0.000000e+00
0.000000e+00 0.000000e+00 0.000000e+00
0.000000e+00 0.000000e+00 0.000000e+00
0.000000e+00 0.000000e+00 0.000000e+00
0.000000e+00 0.000000e+00 0.000000e+00
0.000000e+00 0.000000e+00 0.000000e+00
0.000000e+00 0.000000e+00 0.000000e+00
0.000000e+00 0.000000e+00 0.000000e+00
0.000000e+00 0.000000e+00 0.000000e+00
0.000000e+00 0.000000e+00 0.000000e+00
0.000000e+00 0.000000e+00 0.000000e+00
0.000000e+00 0.000000e+00 0.000000e+00
0.000000e+00 0.000000e+00 0.000000e+00
0.000000e+00 0.000000e+00 0.000000e+00
0.000000e+00 0.000000e+00 0.000000e+00
0.000000e+00 0.000000e+00 0.000000e+00
0.000000e+00 0.000000e+00 0.000000e+00
0.000000e+00 0.000000e+00 0.000000e+00
0.000000e+00 0.000000e+00 0.000000e+00
0.000000e+00 0.000000e+00 0.000000e+00
0.000000e+00 0.000000e+00 0.000000e+00
0.000000e+00 0.000000e+00 0.000000e+00
0.000000e+00 0.000000e+00 0.000000e+00
0.000000e+00 0.000000e+00 0.000000e+00
0.000000e+00 0.000000e+00 0.000000e+00
0.000000e+00 0.000000e+00 0.000000e+00
0.000000e+00 0.000000e+00 0.000000e+00
0.000000e+00 0.000000e+00 0.000000e+00
0.000000e+00 0.000000e+00 0.000000e+00
0.000000e+00 0.000000e+00 0.000000e+00
0.000000e+00 0.000000e+00 0.000000e+00
0.000000e+00 0.000000e+00 0.000000e+00
0.000000e+00 0.000000e+00 0.000000e+00
0.000000e+00 0.000000e+00 0.000000e+00
0.000000e+00 0.000000e+00 0.000000e+00
0.000000e+00 0.000000e+00 0.000000e+00
0.000000e+00 0.000000e+00 0.000000e+00
0.000000e+00 0.000000e+00 0.000000e+00
0.000000e+00 0.000000e+00 0.000000e+00
0.000000e+00 0.000000e+00 0.000000e+00
0.000000e+00 0.000000e+00 0.000000e+00
0.000000e+00 0.000000e+00 0.000000e+00
0.000000e+00 0.000000e+00 0.000000e+00
0.000000e+00 0.000000e+00 0.000000e+00
0.000000e+00 0.000000e+00 0.000000e+00
0.000000e+00 0.000000e+00 0.000000e+00
0.000000e+00 0.000000e+00 0.000000e+00
0.000000e+00 0.000000e+00 0.000000e+00
0.000000e+00 0.000000e+00 0.000000e+00
0.000000e+00 0.000000e+00 0.000000e+00
0.000000e+00 0.000000e+00 0.000000e+00
0.000000e+00 0.000000e+00 0.000000e+00
0.000000e+00 0.000000e+00 0.000000e+00
0.000000e+00 0.000000e+00 0.000000e+00
0.000000e+00 0.000000e+00 0.000000e+00
0.000000e+00 0.000000e+00 0.000000e+00
0.000000e+00 0.000000e+00 0.000000e+00
0.000000e+00 0.000000e+00 0.000000e+00
0.000000e+00 0.000000e+00 0.000000e+00
0.000000e+00 0.000000e+00 0.000000e+00
0.000000e+00 0.000000e+00 0.000000e+00
0.000000e+00 0.000000e+00 0.000000e+00
0.000000e+00 0.000000e+00 0.000000e+00
0.000000e+00 0.000000e+00 0.000000e+00
0.000000e+00 0.000000e+00 0.000000e+00
0.000000e+00 0.000000e+00 0.000000e+00
0.000000e+00 0.000000e+00 0.000000e+00
0.000000e+00 0.000000e+00 0.000000e+00
0.000000e+00 0.000000e+00 0.000000e+00
0.000000e+00 0.000000e+00 0.000000e+00
0.000000e+00 0.000000e+00 0.000000e+00
0.000000e+00 0.000000e+00 0.000000e+00
0.000000e+00 0.000000e+00 0.000000e+00
0.000000e+00 0.000000e+00 0.000000e+00
0.000000e+00 0.000000e+00 0.000000e+00
0.000000e+00 0.000000e+00 0.000000e+00
0.000000e+00 0.000000e+00 0.000000e+00
0.000000e+00 0.000000e+00 0.000000e+00
0.000000e+00 0.000000e+00 0.000000e+00
0.000000e+00 0.000000e+00 0.000000e+00
0.000000e+00 0.000000e+00 0.000000e+00
0.000000e+00 0.000000e+00 0.000000e+00
0.000000e+00 0.000000e+00 0.000000e+00
0.000000e+00 0.000000e+00 0.000000e+00
0.000000e+00 0.000000e+00 0.000000e+00
0.000000e+00 0.000000e+00 0.000000e+00
0.000000e+00 0.000000e+00 0.000000e+00
0.000000e+00 0.000000e+00 0.000000e+00
0.000000e+00 0.000000e+00 0.000000e+00
0.000000e+00 0.000000e+00 0.000000e+00
0.000000e+00 0.000000e+00 0.000000e+00
0.000000e+00 0.000000e+00 0.000000e+00
0.000000e+00 0.000000e+00 0.000000e+00
0.000000e+00 0.000000e+00 0.000000e+00
0.000000e+00 0.000000e+00 0.000000e+00
0.000000e+00 0.000000e+00 0.000000e+00
0.000000e+00 0.000000e+00 0.000000e+00
0.000000e+00 0.000000e+00 0.000000e+00
0.000000e+00 0.000000e+00 0.000000e+00
0.000000e+00 0.000000e+00 0.000000e+00
0.000000e+00 0.000000e+00 0.000000e+00
0.000000e+00 0.000000e+00 0.000000e+00
0.000000e+00 0.000000e+00 0.000000e+00
0.000000e+00 0.000000e+00 0.000000e+00
0.000000e+00 0.000000e+00 0.000000e+00
0.000000e+00 0.000000e+00 0.000000e+00
0.000000e+00 0.000000e+00 0.000000e+00
0.000000e+00 0.000000e+00 0.000000e+00
0.000000e+00 0.000000e+00 0.000000e+00
0.000000e+00 0.000000e+00 0.000000e+00
0.000000e+00 0.000000e+00 0.000000e+00
0.000000e+00 0.000000e+00 0.000000e+00
0.000000e+00 0.000000e+00 0.000000e+00
0.000000e+00 0.000000e+00 0.000000e+00
0.000000e+00 0.000000e+00 0.000000e+00
0.000000e+00 0.000000e+00 0.000000e+00
0.000000e+00 0.000000e+00 0.000000e+00
0.000000e+00 0.000000e+00 0.000000e+00
0.000000e+00 0.000000e+00 0.000000e+00
0.000000e+00 0.000000e+00 0.000000e+00
0.000000e+00 0.000000e+00 0.000000e+00
0.000000e+00 0.000000e+00 0.000000e+00
0.000000e+00 0.000000e+00 0.000000e+00
0.000000e+00 0.000000e+00 0.000000e+00
0.000000e+00 0.000000e+00 0.000000e+00
0.000000e+00 0.000000e+00 0.000000e+00
0.000000e+00 0.000000e+00 0.000000e+00
0.000000e+00 0.000000e+00 0.000000e+00
0.000000e+00 0.000000e+00 0.000000e+00
0.000000e+00 0.000000e+00 0.000000e+00
0.000000e+00 0.000000e+00 0.000000e+00
0.000000e+00 0.000000e+00 0.000000e+00
0.000000e+00 0.000000e+00 0.000000e+00
0.000000e+00 0.000000e+00 0.000000e+00
0.000000e+00 0.000000e+00 0.000000e+00
0.000000e+00 0.000000e+00 0.000000e+00
0.000000e+00 0.000000e+00 0.000000e+00
0.000000e+00 0.000000e+00 0.000000e+00
0.000000e+00 0.000000e+00 0.000000e+00
0.000000e+00 0.000000e+00 0.000000e+00
0.000000e+00 0.000000e+00 0.000000e+00
0.000000e+00 0.000000e+00 0.000000e+00
0.000000e+00 0.000000e+00 0.000000e+00
0.000000e+00 0.000000e+00 0.000000e+00
0.000000e+00 0.000000e+00 0.000000e+00
0.000000e+00 0.000000e+00 0.000000e+00
0.000000e+00 0.000000e+00 0.000000e+00
0.000000e+00 0.000000e+00 0.000000e+00
0.000000e+00 0.000000e+00 0.000000e+00
0.000000e+00 0.000000e+00 0.000000e+00
0.000000e+00 0.000000e+00 0.000000e+00
0.000000e+00 0.000000e+00 0.000000e+00
0.000000e+00 0.000000e+00 0.000000e+00
0.000000e+00 0.000000e+00 0.000000e+00
0.000000e+00 0.000000e+00 0.000000e+00
0.000000e+00 0.000000e+00 0.000000e+00
0.000000e+00 0.000000e+00 0.000000e+00
0.000000e+00 0.000000e+00 0.000000e+00
0.000000e+00 0.000000e+00 0.000000e+00
0.000000e+00 0.000000e+00 0.000000e+00
0.000000e+00 0.000000e+00 0.000000e+00
0.000000e+00 0.000000e+00 0.000000e+00
0.000000e+00 0.000000e+00 0.000000e+00
0.000000e+00 0.000000e+00 0.000000e+00
0.000000e+00 0.000000e+00 0.000000e+00
0.000000e+00 0.000000e+00 0.000000e+00
0.000000e+00 0.000000e+00 0.000000e+00
0.000000e+00 0.000000e+00 0.000000e+00
0.000000e+00 0.000000e+00 0.000000e+00
0.000000e+00 0.000000e+00 0.000000e+00
0.000000e+00 0.000000e+00 0.000000e+00
0.000000e+00 0.000000e+00 0.000000e+00
0.000000e+00 0.000000e+00 0.000000e+00
0.000000e+00 0.000000e+00 0.000000e+00
0.000000e+00 0.000000e+00 0.000000e+00
0.000000e+00 0.000000e+00 0.000000e+00
0.000000e+00 0.000000e+00 0.000000e+00
0.000000e+00 0.000000e+00 0.000000e+00
0.000000e+00 0.000000e+00 0.000000e+00
0.000000e+00 0.000000e+00 0.000000e+00
0.000000e+00 0.000000e+00 0.000000e+00
0.000000e+00 0.000000e+00 0.000000e+00
0.000000e+00 0.000000e+00 0.000000e+00
0.000000e+00 0.000000e+00 0.000000e+00
0.000000e+00 0.000000e+00 0.000000e+00
0.000000e+00 0.000000e+00 0.000000e+00
0.000000e+00 0.000000e+00 0.000000e+00
0.000000e+00 0.000000e+00 0.000000e+00
0.000000e+00 0.000000e+00 0.000000e+00
0.000000e+00 0.000000e+00 0.000000e+00
0.000000e+00 0.000000e+00 0.000000e+00
0.000000e+00 0.000000e+00 0.000000e+00
0.000000e+00 0.000000e+00 0.000000e+00
0.000000e+00 0.000000e+00 0.000000e+00
0.000000e+00 0.000000e+00 0.000000e+00
0.000000e+00 0.000000e+00 0.000000e+00
0.000000e+00 0.000000e+00 0.000000e+00
0.000000e+00 0.000000e+00 0.000000e+00
0.000000e+00 0.000000e+00 0.000000e+00
0.000000e+00 0.000000e+00 0.000000e+00
0.000000e+00 0.000000e+00 0.000000e+00
0.000000e+00 0.000000e+00 0.000000e+00
0.000000e+00 0.000000e+00 0.000000e+00
0.000000e+00 0.000000e+00 0.000000e+00
0.000000e+00 0.000000e+00 0.000000e+00
0.000000e+00 0.000000e+00 0.000000e+00
0.000000e+00 0.000000e+00 0.000000e+00
0.000000e+00 0.000000e+00 0.000000e+00
0.000000e+00 0.000000e+00 0.000000e+00
0.000000e+00 0.000000e+00 0.000000e+00
0.000000e+00 0.000000e+00 0.000000e+00
0.000000e+00 0.000000e+00 0.000000e+00
0.000000e+00 0.000000e+00 0.000000e+00
0.000000e+00 0.000000e+00 0.000000e+00
0.000000e+00 0.000000e+00 0.000000e+00
0.000000e+00 0.000000e+00 0.000000e+00
0.000000e+00 0.000000e+00 0.000000e+00
0.000000e+00 0.000000e+00 0.000000e+00
0.000000e+00 0.000000e+00 0.000000e+00
0.000000e+00 0.000000e+00 0.000000e+00
0.000000e+00 0.000000e+00 0.000000e+00
0.000000e+00 0.000000e+00 0.000000e+00
0.000000e+00 0.000000e+00 0.000000e+00
0.000000e+00 0.000000e+00 0.000000e+00
0.000000e+00 0.000000e+00 0.000000e+00
0.000000e+00 0.000000e+00 0.000000e+00
0.000000e+00 0.000000e+00 0.000000e+00
0.000000e+00 0.000000e+00 0.000000e+00
0.000000e+00 0.000000e+00 0.000000e+00
0.000000e+00 0.000000e+00 0.000000e+00
0.000000e+00 0.000000e+00 0.000000e+00
0.000000e+00 0.000000e+00 0.000000e+00
0.000000e+00 0.000000e+00 0.000000e+00
0.000000e+00 0.000000e+00 0.000000e+00
0.000000e+00 0.000000e+00 0.000000e+00
0.000000e+00 0.000000e+00 0.000000e+00
0.000000e+00 0.000000e+00 0.000000e+00
0.000000e+00 0.000000e+00 0.000000e+00
0.000000e+00 0.000000e+00 0.000000e+00
0.000000e+00 0.000000e+00 0.000000e+00
0.000000e+00 0.000000e+00 0.000000e+00
0.000000e+00 0.000000e+00 0.000000e+00
0.000000e+00 0.000000e+00 0.000000e+00
0.000000e+00 0.000000e+00 0.000000e+00
0.000000e+00 0.000000e+00 0.000000e+00
0.000000e+00 0.000000e+00 0.000000e+00
0.000000e+00 0.000000e+00 0.000000e+00
0.000000e+00 0.000000e+00 0.000000e+00
0.000000e+00 0.000000e+00 0.000000e+00
0.000000e+00 0.000000e+00 0.000000e+00
0.000000e+00 0.000000e+00 0.000000e+00
0.000000e+00 0.000000e+00 0.000000e+00
0.000000e+00 0.000000e+00 0.000000e+00
0.000000e+00 0.000000e+00 0.000000e+00
0.000000e+00 0.000000e+00 0.000000e+00
0.000000e+00 0.000000e+00 0.000000e+00
0.000000e+00 0.000000e+00 0.000000e+00
0.000000e+00 0.000000e+00 0.000000e+00
0.000000e+00 0.000000e+00 0.000000e+00
0.000000e+00 0.000000e+00 0.000000e+00
0.000000e+00 0.000000e+00 0.000000e+00
0.000000e+00 0.000000e+00 0.000000e+00
0.000000e+00 0.000000e+00 0.000000e+00
0.000000e+00 0.000000e+00 0.000000e+00
0.000000e+00 0.000000e+00 0.000000e+00
0.000000e+00 0.000000e+00 0.000000e+00
0.000000e+00 0.000000e+00 0.000000e+00
0.000000e+00 0.000000e+00 0.000000e+00
0.000000e+00 0.000000e+00 0.000000e+00
0.000000e+00 0.000000e+00 0.000000e+00
0.000000e+00 0.000000e+00 0.000000e+00
0.000000e+00 0.000000e+00 0.000000e+00
0.000000e+00 0.000000e+00 0.000000e+00
0.000000e+00 0.000000e+00 0.000000e+00
0.000000e+00 0.000000e+00 0.000000e+00
0.000000e+00 0.000000e+00 0.000000e+00
0.000000e+00 0.000000e+00 0.000000e+00
0.000000e+00 0.000000e+00 0.000000e+00
0.000000e+00 0.000000e+00 0.000000e+00
0.000000e+00 0.000000e+00 0.000000e+00
0.000000e+00 0.000000e+00 0.000000e+00
0.000000e+00 0.000000e+00 0.000000e+00
0.000000e+00 0.000000e+00 0.000000e+00
0.000000e+00 0.000000e+00 0.000000e+00
0.000000e+00 0.000000e+00 0.000000e+00
0.000000e+00 0.000000e+00 0.000000e+00
0.000000e+00 0.000000e+00 0.000000e+00
0.000000e+00 0.000000e+00 0.000000e+00
0.000000e+00 0.000000e+00 0.000000e+00
0.000000e+00 0.000000e+00 0.000000e+00
0.000000e+00 0.000000e+00 0.000000e+00
0.000000e+00 0.000000e+00 0.000000e+00
0.000000e+00 0.000000e+00 0.000000e+00
0.000000e+00 0.000000e+00 0.000000e+00
0.000000e+00 0.000000e+00 0.000000e+00
0.000000e+00 0.000000e+00 0.000000e+00
0.000000e+00 0.000000e+00 0.000000e+00
0.000000e+00 0.000000e+00 0.000000e+00
0.000000e+00 0.000000e+00 0.000000e+00
0.000000e+00 0.000000e+00 0.000000e+00
0.000000e+00 0.000000e+00 0.000000e+00
0.000000e+00 0.000000e+00 0.000000e+00
0.000000e+00 0.000000e+00 0.000000e+00
0.000000e+00 0.000000e+00 0.000000e+00
0.000000e+00 0.000000e+00 0.000000e+00
0.000000e+00 0.000000e+00 0.000000e+00
0.000000e+00 0.000000e+00 0.000000e+00
0.000000e+00 0.000000e+00 0.000000e+00
0.000000e+00 0.000000e+00 0.000000e+00
0.000000e+00 0.000000e+00 0.000000e+00
0.000000e+00 0.000000e+00 0.000000e+00
0.000000e+00 0.000000e+00 0.000000e+00
0.000000e+00 0.000000e+00 0.000000e+00
0.000000e+00 0.000000e+00 0.000000e+00
0.000000e+00 0.000000e+00 0.000000e+00
0.000000e+00 0.000000e+00 0.000000e+00
0.000000e+00 0.000000e+00 0.000000e+00
0.000000e+00 0.000000e+00 0.000000e+00
0.000000e+00 0.000000e+00 0.000000e+00
0.000000e+00 0.000000e+00 0.000000e+00
0.000000e+00 0.000000e+00 0.000000e+00
0.000000e+00 0.000000e+00 0.000000e+00
0.000000e+00 0.000000e+00 0.000000e+00
0.000000e+00 0.000000e+00 0.000000e+00
0.000000e+00 0.000000e+00 0.000000e+00
0.000000e+00 0.000000e+00 0.000000e+00
0.000000e+00 0.000000e+00 0.000000e+00
0.000000e+00 0.000000e+00 0.000000e+00
0.000000e+00 0.000000e+00 0.000000e+00
0.000000e+00 0.000000e+00 0.000000e+00
0.000000e+00 0.000000e+00 0.000000e+00
0.000000e+00 0.000000e+00 0.000000e+00
0.000000e+00 0.000000e+00 0.000000e+00
0.000000e+00 0.000000e+00 0.000000e+00
0.000000e+00 0.000000e+00 0.000000e+00
0.000000e+00 0.000000e+00 0.000000e+00
0.000000e+00 0.000000e+00 0.000000e+00
0.000000e+00 0.000000e+00 0.000000e+00
0.000000e+00 0.000000e+00 0.000000e+00
0.000000e+00 0.000000e+00 0.000000e+00
0.000000e+00 0.000000e+00 0.000000e+00
0.000000e+00 0.000000e+00 0.000000e+00
0.000000e+00 0.000000e+00 0.000000e+00
0.000000e+00 0.000000e+00 0.000000e+00
0.000000e+00 0.000000e+00 0.000000e+00
0.000000e+00 0.000000e+00 0.000000e+00
0.000000e+00 0.000000e+00 0.000000e+00
0.000000e+00 0.000000e+00 0.000000e+00
0.000000e+00 0.000000e+00 0.000000e+00
0.000000e+00 0.000000e+00 0.000000e+00
0.000000e+00 0.000000e+00 0.000000e+00
0.000000e+00 0.000000e+00 0.000000e+00
0.000000e+00 0.000000e+00 0.000000e+00
0.000000e+00 0.000000e+00 0.000000e+00
0.000000e+00 0.000000e+00 0.000000e+00
0.000000e+00 0.000000e+00 0.000000e+00
0.000000e+00 0.000000e+00 0.000000e+00
0.000000e+00 0.000000e+00 0.000000e+00
0.000000e+00 0.000000e+00 0.000000e+00
0.000000e+00 0.000000e+00 0.000000e+00
0.000000e+00 0.000000e+00 0.000000e+00
0.000000e+00 0.000000e+00 0.000000e+00
0.000000e+00 0.000000e+00 0.000000e+00
0.000000e+00 0.000000e+00 0.000000e+00
0.000000e+00 0.000000e+00 0.000000e+00
0.000000e+00 0.000000e+00 0.000000e+00
0.000000e+00 0.000000e+00 0.000000e+00
0.000000e+00 0.000000e+00 0.000000e+00
0.000000e+00 0.000000e+00 0.000000e+00
0.000000e+00 0.000000e+00 0.000000e+00
0.000000e+00 0.000000e+00 0.000000e+00
0.000000e+00 0.000000e+00 0.000000e+00
0.000000e+00 0.000000e+00 0.000000e+00
0.000000e+00 0.000000e+00 0.000000e+00
0.000000e+00 0.000000e+00 0.000000e+00
0.000000e+00 0.000000e+00 0.000000e+00
0.000000e+00 0.000000e+00 0.000000e+00
0.000000e+00 0.000000e+00 0.000000e+00
1.952991e-03 3.037500e-03 -5.006394e-03
-2.298944e-03 7.695275e-03 3.992883e-03
-2.084520e-03 1.486334e-02 -9.949964e-03
-7.602464e-04 2.119150e-02 3.214602e-03
7.635568e-03 2.148953e-02 -4.328661e-03
1.722371e-02 6.355113e-03 5.856207e-03
7.104760e-03 -8.729430e-03 -5.728741e-03
6.796564e-04 -9.965080e-03 2.576787e-03
3.306012e-03 -8.319138e-03 -7.274885e-03
8.476879e-03 -8.622858e-03 -1.581235e-04
4.635563e-03 -9.347357e-03 -7.042097e-03
3.040762e-03 -1.063740e-02 4.120534e-03
3.636783e-03 -1.147376e-02 -7.196070e-03
6.075861e-03 -9.177671e-03 -2.150847e-03
3.971984e-03 -7.097103e-03 -6.448656e-03
3.924469e-03 -9.115741e-03 4.639062e-03
3.480661e-03 -1.084435e-02 -7.006109e-03
4.285820e-03 -7.232062e-03 -2.641081e-03
2.055413e-03 -3.427286e-03 -5.220067e-03
0.000000e+00 0.000000e+00 0.000000e+00
0.000000e+00 0.000000e+00 0.000000e+00
2.462946e-03 -2.687072e-04 3.210497e-03
2.689442e-03 8.884734e-03 -3.294533e-02
1.669010e-03 2.069558e-02 -6.980877e-03
2.399730e-03 2.937770e-02 -1.276732e-02
5.807420e-03 3.827205e-02 4.711384e-03
6.599315e-03 7.614707e-03 1.129102e-01
5.193546e-03 -2.065728e-02 -4.023328e-03
1.611819e-03 -1.373906e-02 7.544142e-03
2.501245e-03 -7.360038e-03 2.067177e-03
3.308159e-03 -1.299470e-02 4.414656e-02
3.794231e-03 -1.749782e-02 -6.581434e-03
2.574816e-03 -1.568409e-02 2.172583e-02
3.212904e-03 -1.485260e-02 2.967970e-04
2.910854e-03 -1.420343e-02 2.774877e-02
3.278381e-03 -1.272099e-02 -5.222635e-03
2.528336e-03 -1.310670e-02 2.686802e-02
2.883112e-03 -1.445584e-02 -1.035414e-03
2.152517e-03 -1.037655e-02 1.556906e-02
1.485450e-03 -6.542953e-03 -2.983057e-03
0.000000e+00 0.000000e+00 0.000000e+00
0.000000e+00 0.000000e+00 0.000000e+00
4.401992e-03 1.417868e-03 -7.910427e-03
6.590244e-03 9.688683e-03 3.812279e-03
6.807682e-03 2.140016e-02 -1.272992e-02
5.973179e-03 3.348563e-02 -3.878895e-04
2.869179e-03 3.558076e-02 -2.162337e-03